<?xml version="1.0"?>
<VTKFile type="UnstructuredGrid" version="0.1" byte_order="LittleEndian" header_type="UInt32" compressor="vtkZLibDataCompressor">
  <UnstructuredGrid>
    <Piece NumberOfPoints="4" NumberOfCells="0">
      <PointData>
        <DataArray type="Float32" Name="mass" format="ascii" RangeMin="9.9999998245167e-15" RangeMax="1">
          1 0.000003000000106112566 0.0009549999958835542 9.9999998245167e-15
        </DataArray>
        <DataArray type="Float32" Name="velocity" NumberOfComponents="3" format="ascii" RangeMin="0.00034083682373421134" RangeMax="0.9936976214581728">
          -0.00014309673861134797 -0.0003093429550062865 0 0.31996697187423706 -0.9407742023468018 0
          -0.27930697798728943 0.32687461376190186 0 0.12253818660974503 0.021720491349697113 0
          <InformationKey name="L2_NORM_RANGE" location="vtkDataArray" length="2">
            <Value index="0">
              0.00034083682373
            </Value>
            <Value index="1">
              0.99369762146
            </Value>
          </InformationKey>
        </DataArray>
        <DataArray type="Float32" Name="force" NumberOfComponents="3" format="ascii" RangeMin="1.3806458229708922e-17" RangeMax="0.00003402204427574857">
          0.000022509075279231183 0.000021783416741527617 0 0.000002805305484798737 9.472159376855416e-7 0
          -0.00002531438076402992 -0.000022730631826561876 0 -1.3683316818622627e-17 1.8398721939027103e-18 0
          <InformationKey name="L2_NORM_RANGE" location="vtkDataArray" length="2">
            <Value index="0">
              1.380645823e-17
            </Value>
            <Value index="1">
              3.4022044276e-05
            </Value>
          </InformationKey>
        </DataArray>
        <DataArray type="Int32" Name="type" format="ascii" RangeMin="0" RangeMax="0">
          0 0 0 0
        </DataArray>
      </PointData>
      <CellData>
      </CellData>
      <Points>
        <DataArray type="Float32" Name="Points" NumberOfComponents="3" format="ascii" RangeMin="0.3331068336883291" RangeMax="26.598659852739562">
          -0.333102285861969 0.0017406330443918705 0 -1.2867993116378784 -0.32026785612106323 0
          3.6090080738067627 3.5414950847625732 0 26.3564510345459 -3.5813677310943604 0
          <InformationKey name="L2_NORM_RANGE" location="vtkDataArray" length="2">
            <Value index="0">
              0.33310683369
            </Value>
            <Value index="1">
              26.598659853
            </Value>
          </InformationKey>
        </DataArray>
      </Points>
      <Cells>
        <DataArray type="Int64" Name="connectivity" format="ascii" RangeMin="1e+299" RangeMax="-1e+299">
        </DataArray>
        <DataArray type="Int64" Name="offsets" format="ascii" RangeMin="1e+299" RangeMax="-1e+299">
        </DataArray>
        <DataArray type="UInt8" Name="types" format="ascii" RangeMin="1e+299" RangeMax="-1e+299">
        </DataArray>
      </Cells>
    </Piece>
  </UnstructuredGrid>
</VTKFile>
