<?xml version="1.0"?>
<VTKFile type="UnstructuredGrid" version="0.1" byte_order="LittleEndian" header_type="UInt32" compressor="vtkZLibDataCompressor">
  <UnstructuredGrid>
    <Piece NumberOfPoints="4" NumberOfCells="0">
      <PointData>
        <DataArray type="Float32" Name="mass" format="ascii" RangeMin="9.9999998245167e-15" RangeMax="1">
          1 0.000003000000106112566 0.0009549999958835542 9.9999998245167e-15
        </DataArray>
        <DataArray type="Float32" Name="velocity" NumberOfComponents="3" format="ascii" RangeMin="0.00043674994551778375" RangeMax="0.9958964670808843">
          -0.00022886421356815845 0.0003719834494404495 0 0.8465230464935303 -0.5246031880378723 0
          -0.1911522001028061 -0.38786348700523376 0 0.16426967084407806 0.015255515463650227 0
          <InformationKey name="L2_NORM_RANGE" location="vtkDataArray" length="2">
            <Value index="0">
              0.00043674994552
            </Value>
            <Value index="1">
              0.99589646708
            </Value>
          </InformationKey>
        </DataArray>
        <DataArray type="Float32" Name="force" NumberOfComponents="3" format="ascii" RangeMin="1.743763453738542e-17" RangeMax="0.000034767551353814635">
          -0.000032013249438023195 0.000013562244930653833 0 0.0000015840904552533175 0.0000025214269498974318 0
          0.00003042915886908304 -0.00001608367165317759 0 -1.718091851708571e-17 2.9811301831148255e-18 0
          <InformationKey name="L2_NORM_RANGE" location="vtkDataArray" length="2">
            <Value index="0">
              1.7437634537e-17
            </Value>
            <Value index="1">
              3.4767551354e-05
            </Value>
          </InformationKey>
        </DataArray>
        <DataArray type="Int32" Name="type" format="ascii" RangeMin="0" RangeMax="0">
          0 0 0 0
        </DataArray>
      </PointData>
      <CellData>
      </CellData>
      <Points>
        <DataArray type="Float32" Name="Points" NumberOfComponents="3" format="ascii" RangeMin="0.12242891097933457" RangeMax="23.83403565826228">
          -0.12239754945039749 0.0027709442656487226 0 -0.6563897132873535 -0.8471301198005676 0
          -4.779422760009766 2.4642903804779053 0 23.48018455505371 -4.091722011566162 0
          <InformationKey name="L2_NORM_RANGE" location="vtkDataArray" length="2">
            <Value index="0">
              0.12242891098
            </Value>
            <Value index="1">
              23.834035658
            </Value>
          </InformationKey>
        </DataArray>
      </Points>
      <Cells>
        <DataArray type="Int64" Name="connectivity" format="ascii" RangeMin="1e+299" RangeMax="-1e+299">
        </DataArray>
        <DataArray type="Int64" Name="offsets" format="ascii" RangeMin="1e+299" RangeMax="-1e+299">
        </DataArray>
        <DataArray type="UInt8" Name="types" format="ascii" RangeMin="1e+299" RangeMax="-1e+299">
        </DataArray>
      </Cells>
    </Piece>
  </UnstructuredGrid>
</VTKFile>
