<?xml version="1.0"?>
<VTKFile type="UnstructuredGrid" version="0.1" byte_order="LittleEndian" header_type="UInt32" compressor="vtkZLibDataCompressor">
  <UnstructuredGrid>
    <Piece NumberOfPoints="4" NumberOfCells="0">
      <PointData>
        <DataArray type="Float32" Name="mass" format="ascii" RangeMin="9.9999998245167e-15" RangeMax="1">
          1 0.000003000000106112566 0.0009549999958835542 9.9999998245167e-15
        </DataArray>
        <DataArray type="Float32" Name="velocity" NumberOfComponents="3" format="ascii" RangeMin="0.0005056006361868415" RangeMax="1.0038745760259986">
          -0.0003031673259101808 -0.0004046252288389951 0 -0.8298314213752747 0.5649282932281494 0
          -0.10808185487985611 0.4219166934490204 0 -0.3139877915382385 -0.022411739453673363 0
          <InformationKey name="L2_NORM_RANGE" location="vtkDataArray" length="2">
            <Value index="0">
              0.00050560063619
            </Value>
            <Value index="1">
              1.003874576
            </Value>
          </InformationKey>
        </DataArray>
        <DataArray type="Float32" Name="force" NumberOfComponents="3" format="ascii" RangeMin="6.049477432211242e-17" RangeMax="0.000037294854724338356">
          0.00003523615305311978 0.000012219644304423127 0 -0.000001687840381237038 -0.0000025079250463022618 0
          -0.00003354831278556958 -0.000009711719940241892 0 -5.726135291085673e-17 -1.9512949113387057e-17 0
          <InformationKey name="L2_NORM_RANGE" location="vtkDataArray" length="2">
            <Value index="0">
              6.0494774322e-17
            </Value>
            <Value index="1">
              3.7294854724e-05
            </Value>
          </InformationKey>
        </DataArray>
        <DataArray type="Int32" Name="type" format="ascii" RangeMin="0" RangeMax="0">
          0 0 0 0
        </DataArray>
      </PointData>
      <CellData>
      </CellData>
      <Points>
        <DataArray type="Float32" Name="Points" NumberOfComponents="3" format="ascii" RangeMin="0.08933798619823323" RangeMax="12.791160303436255">
          -0.08926020562648773 0.003727126168087125 0 0.46696627140045166 0.8301500082015991 0
          4.933643817901611 1.457783579826355 0 12.097372055053711 4.155402660369873 0
          <InformationKey name="L2_NORM_RANGE" location="vtkDataArray" length="2">
            <Value index="0">
              0.089337986198
            </Value>
            <Value index="1">
              12.791160303
            </Value>
          </InformationKey>
        </DataArray>
      </Points>
      <Cells>
        <DataArray type="Int64" Name="connectivity" format="ascii" RangeMin="1e+299" RangeMax="-1e+299">
        </DataArray>
        <DataArray type="Int64" Name="offsets" format="ascii" RangeMin="1e+299" RangeMax="-1e+299">
        </DataArray>
        <DataArray type="UInt8" Name="types" format="ascii" RangeMin="1e+299" RangeMax="-1e+299">
        </DataArray>
      </Cells>
    </Piece>
  </UnstructuredGrid>
</VTKFile>
