<?xml version="1.0"?>
<VTKFile type="UnstructuredGrid" version="0.1" byte_order="LittleEndian" header_type="UInt32" compressor="vtkZLibDataCompressor">
  <UnstructuredGrid>
    <Piece NumberOfPoints="4" NumberOfCells="0">
      <PointData>
        <DataArray type="Float32" Name="mass" format="ascii" RangeMin="9.9999998245167e-15" RangeMax="1">
          1 0.000003000000106112566 0.0009549999958835542 9.9999998245167e-15
        </DataArray>
        <DataArray type="Float32" Name="velocity" NumberOfComponents="3" format="ascii" RangeMin="0.0005033680486194935" RangeMax="1.0005412834128165">
          -0.0003017737763002515 -0.00040287961019203067 0 -0.9981458187103271 0.06919381767511368 0
          -0.10901235044002533 0.4216460883617401 0 -0.09800910204648972 0.024637402966618538 0
          <InformationKey name="L2_NORM_RANGE" location="vtkDataArray" length="2">
            <Value index="0">
              0.00050336804862
            </Value>
            <Value index="1">
              1.0005412834
            </Value>
          </InformationKey>
        </DataArray>
        <DataArray type="Float32" Name="force" NumberOfComponents="3" format="ascii" RangeMin="1.0991335980425847e-17" RangeMax="0.00003605116089073713">
          0.000033709908166201785 0.000012779995813616551 0 -1.8786748512411577e-7 -0.000002995627482960117 0
          -0.00003352204294060357 -0.000009784367648535408 0 -1.0936095321559475e-17 -1.100584277721964e-18 0
          <InformationKey name="L2_NORM_RANGE" location="vtkDataArray" length="2">
            <Value index="0">
              1.099133598e-17
            </Value>
            <Value index="1">
              3.6051160891e-05
            </Value>
          </InformationKey>
        </DataArray>
        <DataArray type="Int32" Name="type" format="ascii" RangeMin="0" RangeMax="0">
          0 0 0 0
        </DataArray>
      </PointData>
      <CellData>
      </CellData>
      <Points>
        <DataArray type="Float32" Name="Points" NumberOfComponents="3" format="ascii" RangeMin="0.24094645763787026" RangeMax="29.94461327910062">
          -0.24091780185699463 0.003715938189998269 0 -0.17830488085746765 1.0014983415603638 0
          4.779118061065674 1.4689605236053467 0 29.791156768798828 3.027679443359375 0
          <InformationKey name="L2_NORM_RANGE" location="vtkDataArray" length="2">
            <Value index="0">
              0.24094645764
            </Value>
            <Value index="1">
              29.944613279
            </Value>
          </InformationKey>
        </DataArray>
      </Points>
      <Cells>
        <DataArray type="Int64" Name="connectivity" format="ascii" RangeMin="1e+299" RangeMax="-1e+299">
        </DataArray>
        <DataArray type="Int64" Name="offsets" format="ascii" RangeMin="1e+299" RangeMax="-1e+299">
        </DataArray>
        <DataArray type="UInt8" Name="types" format="ascii" RangeMin="1e+299" RangeMax="-1e+299">
        </DataArray>
      </Cells>
    </Piece>
  </UnstructuredGrid>
</VTKFile>
