<?xml version="1.0"?>
<VTKFile type="UnstructuredGrid" version="0.1" byte_order="LittleEndian" header_type="UInt32" compressor="vtkZLibDataCompressor">
  <UnstructuredGrid>
    <Piece NumberOfPoints="4" NumberOfCells="0">
      <PointData>
        <DataArray type="Float32" Name="mass" format="ascii" RangeMin="9.9999998245167e-15" RangeMax="1">
          1 0.000003000000106112566 0.0009549999958835542 9.9999998245167e-15
        </DataArray>
        <DataArray type="Float32" Name="velocity" NumberOfComponents="3" format="ascii" RangeMin="0.0007916405361255356" RangeMax="1.0055121780687353">
          -0.0007454825099557638 0.0002663654740899801 0 0.5827022790908813 0.8194588422775269 0
          0.35063809156417847 -0.2814909517765045 0 0.07504147291183472 0.0269294623285532 0
          <InformationKey name="L2_NORM_RANGE" location="vtkDataArray" length="2">
            <Value index="0">
              0.00079164053613
            </Value>
            <Value index="1">
              1.0055121781
            </Value>
          </InformationKey>
        </DataArray>
        <DataArray type="Float32" Name="force" NumberOfComponents="3" format="ascii" RangeMin="1.0610924124223107e-17" RangeMax="0.00003731683705652607">
          -0.000021484456738107838 -0.00003038764225493651 0 -0.0000024648988983244635 0.0000017699063619147637 0
          0.0000239493547269376 0.00002861773464246653 0 -1.0572699162033292e-17 8.998573215573961e-19 0
          <InformationKey name="L2_NORM_RANGE" location="vtkDataArray" length="2">
            <Value index="0">
              1.0610924124e-17
            </Value>
            <Value index="1">
              3.7316837057e-05
            </Value>
          </InformationKey>
        </DataArray>
        <DataArray type="Int32" Name="type" format="ascii" RangeMin="0" RangeMax="0">
          0 0 0 0
        </DataArray>
      </PointData>
      <CellData>
      </CellData>
      <Points>
        <DataArray type="Float32" Name="Points" NumberOfComponents="3" format="ascii" RangeMin="0.342660889484617" RangeMax="30.36889531652607">
          -0.34254735708236694 0.008820053189992905 0 0.46509090065956116 -0.571140706539154 0
          -3.5892205238342285 -3.8707222938537598 0 30.257516860961914 -2.598552703857422 0
          <InformationKey name="L2_NORM_RANGE" location="vtkDataArray" length="2">
            <Value index="0">
              0.34266088948
            </Value>
            <Value index="1">
              30.368895317
            </Value>
          </InformationKey>
        </DataArray>
      </Points>
      <Cells>
        <DataArray type="Int64" Name="connectivity" format="ascii" RangeMin="1e+299" RangeMax="-1e+299">
        </DataArray>
        <DataArray type="Int64" Name="offsets" format="ascii" RangeMin="1e+299" RangeMax="-1e+299">
        </DataArray>
        <DataArray type="UInt8" Name="types" format="ascii" RangeMin="1e+299" RangeMax="-1e+299">
        </DataArray>
      </Cells>
    </Piece>
  </UnstructuredGrid>
</VTKFile>
