<?xml version="1.0"?>
<VTKFile type="UnstructuredGrid" version="0.1" byte_order="LittleEndian" header_type="UInt32" compressor="vtkZLibDataCompressor">
  <UnstructuredGrid>
    <Piece NumberOfPoints="4" NumberOfCells="0">
      <PointData>
        <DataArray type="Float32" Name="mass" format="ascii" RangeMin="9.9999998245167e-15" RangeMax="1">
          1 0.000003000000106112566 0.0009549999958835542 9.9999998245167e-15
        </DataArray>
        <DataArray type="Float32" Name="velocity" NumberOfComponents="3" format="ascii" RangeMin="0.000822585682189551" RangeMax="1.0059665245719538">
          -0.0008042088011279702 0.00017290288815274835 0 0.46399739384651184 0.8925665616989136 0
          0.41250452399253845 -0.18385401368141174 0 -0.16238994896411896 0.01596490852534771 0
          <InformationKey name="L2_NORM_RANGE" location="vtkDataArray" length="2">
            <Value index="0">
              0.00082258568219
            </Value>
            <Value index="1">
              1.0059665246
            </Value>
          </InformationKey>
        </DataArray>
        <DataArray type="Float32" Name="force" NumberOfComponents="3" format="ascii" RangeMin="1.7079548357302074e-17" RangeMax="0.000037937965802798236">
          -0.000013105317520967219 -0.00003560252662282437 0 -0.0000026894726943282876 0.0000014113202269072644 0
          0.000015794790670042858 0.000034191205486422405 0 -1.6840679278807947e-17 -2.846487926858038e-18 0
          <InformationKey name="L2_NORM_RANGE" location="vtkDataArray" length="2">
            <Value index="0">
              1.7079548357e-17
            </Value>
            <Value index="1">
              3.7937965803e-05
            </Value>
          </InformationKey>
        </DataArray>
        <DataArray type="Int32" Name="type" format="ascii" RangeMin="0" RangeMax="0">
          0 0 0 0
        </DataArray>
      </PointData>
      <CellData>
      </CellData>
      <Points>
        <DataArray type="Float32" Name="Points" NumberOfComponents="3" format="ascii" RangeMin="0.2540226371271878" RangeMax="23.957320866862577">
          -0.2538456916809082 0.009479714557528496 0 0.626174807548523 -0.4523579180240631 0
          -2.3655855655670166 -4.561840534210205 0 23.61406135559082 4.040956497192383 0
          <InformationKey name="L2_NORM_RANGE" location="vtkDataArray" length="2">
            <Value index="0">
              0.25402263713
            </Value>
            <Value index="1">
              23.957320867
            </Value>
          </InformationKey>
        </DataArray>
      </Points>
      <Cells>
        <DataArray type="Int64" Name="connectivity" format="ascii" RangeMin="1e+299" RangeMax="-1e+299">
        </DataArray>
        <DataArray type="Int64" Name="offsets" format="ascii" RangeMin="1e+299" RangeMax="-1e+299">
        </DataArray>
        <DataArray type="UInt8" Name="types" format="ascii" RangeMin="1e+299" RangeMax="-1e+299">
        </DataArray>
      </Cells>
    </Piece>
  </UnstructuredGrid>
</VTKFile>
