<?xml version="1.0"?>
<VTKFile type="UnstructuredGrid" version="0.1" byte_order="LittleEndian" header_type="UInt32" compressor="vtkZLibDataCompressor">
  <UnstructuredGrid>
    <Piece NumberOfPoints="4" NumberOfCells="0">
      <PointData>
        <DataArray type="Float32" Name="mass" format="ascii" RangeMin="9.9999998245167e-15" RangeMax="1">
          1 0.000003000000106112566 0.0009549999958835542 9.9999998245167e-15
        </DataArray>
        <DataArray type="Float32" Name="velocity" NumberOfComponents="3" format="ascii" RangeMin="0.0007356301998751496" RangeMax="1.0048047569189722">
          -0.000644708750769496 0.0003542632039170712 0 0.7046569585800171 0.716303825378418 0
          0.24473275244235992 -0.37320640683174133 0 -0.151742622256279 0.017703624442219734 0
          <InformationKey name="L2_NORM_RANGE" location="vtkDataArray" length="2">
            <Value index="0">
              0.00073563019988
            </Value>
            <Value index="1">
              1.0048047569
            </Value>
          </InformationKey>
        </DataArray>
        <DataArray type="Float32" Name="force" NumberOfComponents="3" format="ascii" RangeMin="1.575367513732906e-17" RangeMax="0.000036734558332190476">
          -0.000029102031476213597 -0.00002144581412721891 0 -0.0000021484217995748622 0.00000213682710636931 0
          0.00003125045259366743 0.000019308987248223275 0 -1.5561614860700876e-17 -2.452432111132423e-18 0
          <InformationKey name="L2_NORM_RANGE" location="vtkDataArray" length="2">
            <Value index="0">
              1.5753675137e-17
            </Value>
            <Value index="1">
              3.6734558332e-05
            </Value>
          </InformationKey>
        </DataArray>
        <DataArray type="Int32" Name="type" format="ascii" RangeMin="0" RangeMax="0">
          0 0 0 0
        </DataArray>
      </PointData>
      <CellData>
      </CellData>
      <Points>
        <DataArray type="Float32" Name="Points" NumberOfComponents="3" format="ascii" RangeMin="0.24915199165068827" RangeMax="24.95845799151955">
          -0.24903371930122375 0.0076760402880609035 0 0.45643264055252075 -0.694024384021759 0
          -4.5866007804870605 -2.6724166870117188 0 24.647096633911133 3.9300448894500732 0
          <InformationKey name="L2_NORM_RANGE" location="vtkDataArray" length="2">
            <Value index="0">
              0.24915199165
            </Value>
            <Value index="1">
              24.958457992
            </Value>
          </InformationKey>
        </DataArray>
      </Points>
      <Cells>
        <DataArray type="Int64" Name="connectivity" format="ascii" RangeMin="1e+299" RangeMax="-1e+299">
        </DataArray>
        <DataArray type="Int64" Name="offsets" format="ascii" RangeMin="1e+299" RangeMax="-1e+299">
        </DataArray>
        <DataArray type="UInt8" Name="types" format="ascii" RangeMin="1e+299" RangeMax="-1e+299">
        </DataArray>
      </Cells>
    </Piece>
  </UnstructuredGrid>
</VTKFile>
