<?xml version="1.0"?>
<VTKFile type="UnstructuredGrid" version="0.1" byte_order="LittleEndian" header_type="UInt32" compressor="vtkZLibDataCompressor">
  <UnstructuredGrid>
    <Piece NumberOfPoints="4" NumberOfCells="0">
      <PointData>
        <DataArray type="Float32" Name="mass" format="ascii" RangeMin="9.9999998245167e-15" RangeMax="1">
          1 0.000003000000106112566 0.0009549999958835542 9.9999998245167e-15
        </DataArray>
        <DataArray type="Float32" Name="velocity" NumberOfComponents="3" format="ascii" RangeMin="0.0006200074699644145" RangeMax="1.0025779584002887">
          -0.00045645178761333227 -0.0004195962683297694 0 0.9011194109916687 0.43948420882225037 0
          0.04698788747191429 0.43798723816871643 0 0.05025333911180496 0.028722070157527924 0
          <InformationKey name="L2_NORM_RANGE" location="vtkDataArray" length="2">
            <Value index="0">
              0.00062000746996
            </Value>
            <Value index="1">
              1.0025779584
            </Value>
          </InformationKey>
        </DataArray>
        <DataArray type="Float32" Name="force" NumberOfComponents="3" format="ascii" RangeMin="9.649325895827427e-18" RangeMax="0.000037347590426215345">
          0.00003695385385071859 -0.000005408807282947237 0 -0.0000013070066415821202 0.000002721376176850754 0
          -0.00003564684811863117 0.000002687431106096483 0 -9.632232028688064e-18 5.741048592387937e-19 0
          <InformationKey name="L2_NORM_RANGE" location="vtkDataArray" length="2">
            <Value index="0">
              9.6493258958e-18
            </Value>
            <Value index="1">
              3.7347590426e-05
            </Value>
          </InformationKey>
        </DataArray>
        <DataArray type="Int32" Name="type" format="ascii" RangeMin="0" RangeMax="0">
          0 0 0 0
        </DataArray>
      </PointData>
      <CellData>
      </CellData>
      <Points>
        <DataArray type="Float32" Name="Points" NumberOfComponents="3" format="ascii" RangeMin="0.36066804147248" RangeMax="31.853803330003725">
          -0.3606262505054474 0.005490317475050688 0 0.07097622752189636 -0.8930769562721252 0
          4.793390274047852 -0.3830765187740326 0 31.796411514282227 -1.9112826585769653 0
          <InformationKey name="L2_NORM_RANGE" location="vtkDataArray" length="2">
            <Value index="0">
              0.36066804147
            </Value>
            <Value index="1">
              31.85380333
            </Value>
          </InformationKey>
        </DataArray>
      </Points>
      <Cells>
        <DataArray type="Int64" Name="connectivity" format="ascii" RangeMin="1e+299" RangeMax="-1e+299">
        </DataArray>
        <DataArray type="Int64" Name="offsets" format="ascii" RangeMin="1e+299" RangeMax="-1e+299">
        </DataArray>
        <DataArray type="UInt8" Name="types" format="ascii" RangeMin="1e+299" RangeMax="-1e+299">
        </DataArray>
      </Cells>
    </Piece>
  </UnstructuredGrid>
</VTKFile>
