<?xml version="1.0"?>
<VTKFile type="UnstructuredGrid" version="0.1" byte_order="LittleEndian" header_type="UInt32" compressor="vtkZLibDataCompressor">
  <UnstructuredGrid>
    <Piece NumberOfPoints="4" NumberOfCells="0">
      <PointData>
        <DataArray type="Float32" Name="mass" format="ascii" RangeMin="9.9999998245167e-15" RangeMax="1">
          1 0.000003000000106112566 0.0009549999958835542 9.9999998245167e-15
        </DataArray>
        <DataArray type="Float32" Name="velocity" NumberOfComponents="3" format="ascii" RangeMin="0.00032613775644056215" RangeMax="1.0061497996630335">
          -0.0001275452959816903 -0.0003001633449457586 0 0.3607514500617981 0.9392527937889099 0
          -0.29571932554244995 0.31135663390159607 0 0.21244150400161743 0.005630613770335913 0
          <InformationKey name="L2_NORM_RANGE" location="vtkDataArray" length="2">
            <Value index="0">
              0.00032613775644
            </Value>
            <Value index="1">
              1.0061497997
            </Value>
          </InformationKey>
        </DataArray>
        <DataArray type="Float32" Name="force" NumberOfComponents="3" format="ascii" RangeMin="2.5749129457212392e-17" RangeMax="0.000035279807071069005">
          0.000026884557883022353 0.00002284480979142245 0 -0.0000028341958113742294 0.0000010967428352159914 0
          -0.000024050361389527097 -0.000023941551262396388 0 -2.5113133913938466e-17 5.687545412994665e-18 0
          <InformationKey name="L2_NORM_RANGE" location="vtkDataArray" length="2">
            <Value index="0">
              2.5749129457e-17
            </Value>
            <Value index="1">
              3.5279807071e-05
            </Value>
          </InformationKey>
        </DataArray>
        <DataArray type="Int32" Name="type" format="ascii" RangeMin="0" RangeMax="0">
          0 0 0 0
        </DataArray>
      </PointData>
      <CellData>
      </CellData>
      <Points>
        <DataArray type="Float32" Name="Points" NumberOfComponents="3" format="ascii" RangeMin="0.12089167481081046" RangeMax="19.600316615040267">
          -0.12088177353143692 0.0015472124796360731 0 0.8057326674461365 -0.35698357224464417 0
          3.638730049133301 3.744144916534424 0 19.111980438232422 -4.3479437828063965 0
          <InformationKey name="L2_NORM_RANGE" location="vtkDataArray" length="2">
            <Value index="0">
              0.12089167481
            </Value>
            <Value index="1">
              19.600316615
            </Value>
          </InformationKey>
        </DataArray>
      </Points>
      <Cells>
        <DataArray type="Int64" Name="connectivity" format="ascii" RangeMin="1e+299" RangeMax="-1e+299">
        </DataArray>
        <DataArray type="Int64" Name="offsets" format="ascii" RangeMin="1e+299" RangeMax="-1e+299">
        </DataArray>
        <DataArray type="UInt8" Name="types" format="ascii" RangeMin="1e+299" RangeMax="-1e+299">
        </DataArray>
      </Cells>
    </Piece>
  </UnstructuredGrid>
</VTKFile>
