<?xml version="1.0"?>
<VTKFile type="UnstructuredGrid" version="0.1" byte_order="LittleEndian" header_type="UInt32" compressor="vtkZLibDataCompressor">
  <UnstructuredGrid>
    <Piece NumberOfPoints="4" NumberOfCells="0">
      <PointData>
        <DataArray type="Float32" Name="mass" format="ascii" RangeMin="9.9999998245167e-15" RangeMax="1">
          1 0.000003000000106112566 0.0009549999958835542 9.9999998245167e-15
        </DataArray>
        <DataArray type="Float32" Name="velocity" NumberOfComponents="3" format="ascii" RangeMin="0.0001286520974858001" RangeMax="1.0056676555594712">
          -0.000020192084775771946 -0.00012705763219855726 0 -0.5536122918128967 0.8395718336105347 0
          -0.4052587151527405 0.13040724396705627 0 -0.41373908519744873 -0.06260010600090027 0
          <InformationKey name="L2_NORM_RANGE" location="vtkDataArray" length="2">
            <Value index="0">
              0.00012865209749
            </Value>
            <Value index="1">
              1.0056676556
            </Value>
          </InformationKey>
        </DataArray>
        <DataArray type="Float32" Name="force" NumberOfComponents="3" format="ascii" RangeMin="1.337245402340315e-16" RangeMax="0.00003575895286349383">
          0.000012416858226060867 0.00003353392821736634 0 -0.0000025271149297623197 -0.0000016799756394902943 0
          -0.000009889743523672223 -0.00003185395325999707 0 -1.2108715822337508e-16 -5.674638996615061e-17 0
          <InformationKey name="L2_NORM_RANGE" location="vtkDataArray" length="2">
            <Value index="0">
              1.3372454023e-16
            </Value>
            <Value index="1">
              3.5758952863e-05
            </Value>
          </InformationKey>
        </DataArray>
        <DataArray type="Int32" Name="type" format="ascii" RangeMin="0" RangeMax="0">
          0 0 0 0
        </DataArray>
      </PointData>
      <CellData>
      </CellData>
      <Points>
        <DataArray type="Float32" Name="Points" NumberOfComponents="3" format="ascii" RangeMin="0.0909581359489065" RangeMax="8.571394323738785">
          -0.09095782041549683 0.000239584143855609 0 0.7370292544364929 0.5507074594497681 0
          1.4956470727920532 5.110538005828857 0 7.740838050842285 3.6807916164398193 0
          <InformationKey name="L2_NORM_RANGE" location="vtkDataArray" length="2">
            <Value index="0">
              0.090958135949
            </Value>
            <Value index="1">
              8.5713943237
            </Value>
          </InformationKey>
        </DataArray>
      </Points>
      <Cells>
        <DataArray type="Int64" Name="connectivity" format="ascii" RangeMin="1e+299" RangeMax="-1e+299">
        </DataArray>
        <DataArray type="Int64" Name="offsets" format="ascii" RangeMin="1e+299" RangeMax="-1e+299">
        </DataArray>
        <DataArray type="UInt8" Name="types" format="ascii" RangeMin="1e+299" RangeMax="-1e+299">
        </DataArray>
      </Cells>
    </Piece>
  </UnstructuredGrid>
</VTKFile>
