<?xml version="1.0"?>
<VTKFile type="UnstructuredGrid" version="0.1" byte_order="LittleEndian" header_type="UInt32" compressor="vtkZLibDataCompressor">
  <UnstructuredGrid>
    <Piece NumberOfPoints="4" NumberOfCells="0">
      <PointData>
        <DataArray type="Float32" Name="mass" format="ascii" RangeMin="9.9999998245167e-15" RangeMax="1">
          1 0.000003000000106112566 0.0009549999958835542 9.9999998245167e-15
        </DataArray>
        <DataArray type="Float32" Name="velocity" NumberOfComponents="3" format="ascii" RangeMin="0.00030213768638659135" RangeMax="0.9999275835283158">
          -0.00010904226655839011 0.0002817746717482805 0 -0.9999117255210876 0.005631471052765846 0
          -0.3108198940753937 -0.29506969451904297 0 -0.12813740968704224 0.021127117797732353 0
          <InformationKey name="L2_NORM_RANGE" location="vtkDataArray" length="2">
            <Value index="0">
              0.00030213768639
            </Value>
            <Value index="1">
              0.99992758353
            </Value>
          </InformationKey>
        </DataArray>
        <DataArray type="Float32" Name="force" NumberOfComponents="3" format="ascii" RangeMin="1.329629381745631e-17" RangeMax="0.00003608224455810535">
          -0.000022745303795090877 0.000028010346795781516 0 4.744873383089043e-9 -0.000002998703848788864 0
          0.00002274055987072643 -0.000025011642719618976 0 -1.3181103208697795e-17 -1.7464098836709563e-18 0
          <InformationKey name="L2_NORM_RANGE" location="vtkDataArray" length="2">
            <Value index="0">
              1.3296293817e-17
            </Value>
            <Value index="1">
              3.6082244558e-05
            </Value>
          </InformationKey>
        </DataArray>
        <DataArray type="Int32" Name="type" format="ascii" RangeMin="0" RangeMax="0">
          0 0 0 0
        </DataArray>
      </PointData>
      <CellData>
      </CellData>
      <Points>
        <DataArray type="Float32" Name="Points" NumberOfComponents="3" format="ascii" RangeMin="0.24301423205632147" RangeMax="27.193886512566728">
          -0.24301041662693024 0.001361760892905295 0 -0.24462756514549255 1.0015617609024048 0
          -3.818618059158325 3.934067487716675 0 26.953514099121094 3.60770583152771 0
          <InformationKey name="L2_NORM_RANGE" location="vtkDataArray" length="2">
            <Value index="0">
              0.24301423206
            </Value>
            <Value index="1">
              27.193886513
            </Value>
          </InformationKey>
        </DataArray>
      </Points>
      <Cells>
        <DataArray type="Int64" Name="connectivity" format="ascii" RangeMin="1e+299" RangeMax="-1e+299">
        </DataArray>
        <DataArray type="Int64" Name="offsets" format="ascii" RangeMin="1e+299" RangeMax="-1e+299">
        </DataArray>
        <DataArray type="UInt8" Name="types" format="ascii" RangeMin="1e+299" RangeMax="-1e+299">
        </DataArray>
      </Cells>
    </Piece>
  </UnstructuredGrid>
</VTKFile>
