<?xml version="1.0"?>
<VTKFile type="UnstructuredGrid" version="0.1" byte_order="LittleEndian" header_type="UInt32" compressor="vtkZLibDataCompressor">
  <UnstructuredGrid>
    <Piece NumberOfPoints="4" NumberOfCells="0">
      <PointData>
        <DataArray type="Float32" Name="mass" format="ascii" RangeMin="9.9999998245167e-15" RangeMax="1">
          1 0.000003000000106112566 0.0009549999958835542 9.9999998245167e-15
        </DataArray>
        <DataArray type="Float32" Name="velocity" NumberOfComponents="3" format="ascii" RangeMin="0.00015669104137397617" RangeMax="0.992846102508814">
          -0.00003129741162410937 0.00015353356138803065 0 0.0792134627699852 -0.98968106508255 0
          -0.3956180512905121 -0.15765918791294098 0 -0.1221679300069809 0.021899107843637466 0
          <InformationKey name="L2_NORM_RANGE" location="vtkDataArray" length="2">
            <Value index="0">
              0.00015669104137
            </Value>
            <Value index="1">
              0.99284610251
            </Value>
          </InformationKey>
        </DataArray>
        <DataArray type="Float32" Name="force" NumberOfComponents="3" format="ascii" RangeMin="1.2770352150364196e-17" RangeMax="0.00003433797792438156">
          -0.000014955089682189282 0.00003091022517764941 0 0.000002948933570223744 2.3410838423387759e-7 0
          0.000012006155884591863 -0.00003114433275186457 0 -1.2669934541461463e-17 -1.5983281138092898e-18 0
          <InformationKey name="L2_NORM_RANGE" location="vtkDataArray" length="2">
            <Value index="0">
              1.277035215e-17
            </Value>
            <Value index="1">
              3.4337977924e-05
            </Value>
          </InformationKey>
        </DataArray>
        <DataArray type="Int32" Name="type" format="ascii" RangeMin="0" RangeMax="0">
          0 0 0 0
        </DataArray>
      </PointData>
      <CellData>
      </CellData>
      <Points>
        <DataArray type="Float32" Name="Points" NumberOfComponents="3" format="ascii" RangeMin="0.2426962324596925" RangeMax="27.754253945343706">
          -0.24269597232341766 0.0003553422575350851 0 -1.2465769052505493 -0.07930357754230499 0
          -2.166712760925293 4.991304397583008 0 27.531627655029297 3.508288860321045 0
          <InformationKey name="L2_NORM_RANGE" location="vtkDataArray" length="2">
            <Value index="0">
              0.24269623246
            </Value>
            <Value index="1">
              27.754253945
            </Value>
          </InformationKey>
        </DataArray>
      </Points>
      <Cells>
        <DataArray type="Int64" Name="connectivity" format="ascii" RangeMin="1e+299" RangeMax="-1e+299">
        </DataArray>
        <DataArray type="Int64" Name="offsets" format="ascii" RangeMin="1e+299" RangeMax="-1e+299">
        </DataArray>
        <DataArray type="UInt8" Name="types" format="ascii" RangeMin="1e+299" RangeMax="-1e+299">
        </DataArray>
      </Cells>
    </Piece>
  </UnstructuredGrid>
</VTKFile>
