<?xml version="1.0"?>
<VTKFile type="UnstructuredGrid" version="0.1" byte_order="LittleEndian" header_type="UInt32" compressor="vtkZLibDataCompressor">
  <UnstructuredGrid>
    <Piece NumberOfPoints="4" NumberOfCells="0">
      <PointData>
        <DataArray type="Float32" Name="mass" format="ascii" RangeMin="9.9999998245167e-15" RangeMax="1">
          1 0.000003000000106112566 0.0009549999958835542 9.9999998245167e-15
        </DataArray>
        <DataArray type="Float32" Name="velocity" NumberOfComponents="3" format="ascii" RangeMin="0.0006410763248020925" RangeMax="0.9936419886957624">
          -0.0004875696322415024 0.0004162387631367892 0 -0.488357812166214 -0.8653502464294434 0
          0.08393684774637222 -0.43313372135162354 0 0.012092037126421928 0.03025186061859131 0
          <InformationKey name="L2_NORM_RANGE" location="vtkDataArray" length="2">
            <Value index="0">
              0.0006410763248
            </Value>
            <Value index="1">
              0.9936419887
            </Value>
          </InformationKey>
        </DataArray>
        <DataArray type="Float32" Name="force" NumberOfComponents="3" format="ascii" RangeMin="8.942031548264333e-18" RangeMax="0.000038232836344915715">
          -0.00003799376281676814 -0.000004268929842510261 0 0.000002585610445748898 -0.000001446254145776038 0
          0.00003540815305314027 0.000005715184215659974 0 -8.940134146068008e-18 1.8420005554682034e-19 0
          <InformationKey name="L2_NORM_RANGE" location="vtkDataArray" length="2">
            <Value index="0">
              8.9420315483e-18
            </Value>
            <Value index="1">
              3.8232836345e-05
            </Value>
          </InformationKey>
        </DataArray>
        <DataArray type="Int32" Name="type" format="ascii" RangeMin="0" RangeMax="0">
          0 0 0 0
        </DataArray>
      </PointData>
      <CellData>
      </CellData>
      <Points>
        <DataArray type="Float32" Name="Points" NumberOfComponents="3" format="ascii" RangeMin="0.3678195426307927" RangeMax="33.085458923389595">
          -0.3677722215652466 0.00589991407468915 0 -1.2460143566131592 0.4971008002758026 0
          -5.461945056915283 -0.8163409233093262 0 33.078392028808594 -0.6837930679321289 0
          <InformationKey name="L2_NORM_RANGE" location="vtkDataArray" length="2">
            <Value index="0">
              0.36781954263
            </Value>
            <Value index="1">
              33.085458923
            </Value>
          </InformationKey>
        </DataArray>
      </Points>
      <Cells>
        <DataArray type="Int64" Name="connectivity" format="ascii" RangeMin="1e+299" RangeMax="-1e+299">
        </DataArray>
        <DataArray type="Int64" Name="offsets" format="ascii" RangeMin="1e+299" RangeMax="-1e+299">
        </DataArray>
        <DataArray type="UInt8" Name="types" format="ascii" RangeMin="1e+299" RangeMax="-1e+299">
        </DataArray>
      </Cells>
    </Piece>
  </UnstructuredGrid>
</VTKFile>
