<?xml version="1.0"?>
<VTKFile type="UnstructuredGrid" version="0.1" byte_order="LittleEndian" header_type="UInt32" compressor="vtkZLibDataCompressor">
  <UnstructuredGrid>
    <Piece NumberOfPoints="4" NumberOfCells="0">
      <PointData>
        <DataArray type="Float32" Name="mass" format="ascii" RangeMin="9.9999998245167e-15" RangeMax="1">
          1 0.000003000000106112566 0.0009549999958835542 9.9999998245167e-15
        </DataArray>
        <DataArray type="Float32" Name="velocity" NumberOfComponents="3" format="ascii" RangeMin="0.0008373910516903004" RangeMax="1.000918862765077">
          -0.0008307986427098513 0.00010486843530088663 0 0.9709561467170715 0.24306939542293549 0
          0.43875473737716675 -0.11057344824075699 0 0.05301995202898979 0.027984783053398132 0
          <InformationKey name="L2_NORM_RANGE" location="vtkDataArray" length="2">
            <Value index="0">
              0.00083739105169
            </Value>
            <Value index="1">
              1.0009188628
            </Value>
          </InformationKey>
        </DataArray>
        <DataArray type="Float32" Name="force" NumberOfComponents="3" format="ascii" RangeMin="8.943189569139606e-18" RangeMax="0.00004048949929060171">
          -0.00000883515258465195 -0.00003951379039790481 0 -7.10453377905651e-7 0.000002924899490608368 0
          0.000009545606189931277 0.00003658889181679115 0 -8.929158286520042e-18 5.007713688280582e-19 0
          <InformationKey name="L2_NORM_RANGE" location="vtkDataArray" length="2">
            <Value index="0">
              8.9431895691e-18
            </Value>
            <Value index="1">
              4.0489499291e-05
            </Value>
          </InformationKey>
        </DataArray>
        <DataArray type="Int32" Name="type" format="ascii" RangeMin="0" RangeMax="0">
          0 0 0 0
        </DataArray>
      </PointData>
      <CellData>
      </CellData>
      <Points>
        <DataArray type="Float32" Name="Points" NumberOfComponents="3" format="ascii" RangeMin="0.16475243667352918" RangeMax="33.288943687286576">
          -0.1644631326198578 0.009759272448718548 0 0.0711461752653122 -0.9603638052940369 0
          -1.4330899715423584 -4.852974891662598 0 33.23651123046875 -1.8676437139511108 0
          <InformationKey name="L2_NORM_RANGE" location="vtkDataArray" length="2">
            <Value index="0">
              0.16475243667
            </Value>
            <Value index="1">
              33.288943687
            </Value>
          </InformationKey>
        </DataArray>
      </Points>
      <Cells>
        <DataArray type="Int64" Name="connectivity" format="ascii" RangeMin="1e+299" RangeMax="-1e+299">
        </DataArray>
        <DataArray type="Int64" Name="offsets" format="ascii" RangeMin="1e+299" RangeMax="-1e+299">
        </DataArray>
        <DataArray type="UInt8" Name="types" format="ascii" RangeMin="1e+299" RangeMax="-1e+299">
        </DataArray>
      </Cells>
    </Piece>
  </UnstructuredGrid>
</VTKFile>
