<?xml version="1.0"?>
<VTKFile type="UnstructuredGrid" version="0.1" byte_order="LittleEndian" header_type="UInt32" compressor="vtkZLibDataCompressor">
  <UnstructuredGrid>
    <Piece NumberOfPoints="4" NumberOfCells="0">
      <PointData>
        <DataArray type="Float32" Name="mass" format="ascii" RangeMin="9.9999998245167e-15" RangeMax="1">
          1 0.000003000000106112566 0.0009549999958835542 9.9999998245167e-15
        </DataArray>
        <DataArray type="Float32" Name="velocity" NumberOfComponents="3" format="ascii" RangeMin="0.0008433632848714491" RangeMax="0.9953046369230322">
          -0.0008426881395280361 0.000033739142963895574 0 0.8234759569168091 -0.5590336918830872 0
          0.45166778564453125 -0.03357281908392906 0 -0.22705088555812836 0.002776284236460924 0
          <InformationKey name="L2_NORM_RANGE" location="vtkDataArray" length="2">
            <Value index="0">
              0.00084336328487
            </Value>
            <Value index="1">
              0.99530463692
            </Value>
          </InformationKey>
        </DataArray>
        <DataArray type="Float32" Name="force" NumberOfComponents="3" format="ascii" RangeMin="2.918750540377072e-17" RangeMax="0.000040494535075575064">
          -0.000004603643446898786 -0.00004023200017400086 0 0.0000016847608321768348 0.000002453143906677724 0
          0.000002918882501035114 0.00003777885649469681 0 -2.8383432170336263e-17 -6.803767333401791e-18 0
          <InformationKey name="L2_NORM_RANGE" location="vtkDataArray" length="2">
            <Value index="0">
              2.9187505404e-17
            </Value>
            <Value index="1">
              4.0494535076e-05
            </Value>
          </InformationKey>
        </DataArray>
        <DataArray type="Int32" Name="type" format="ascii" RangeMin="0" RangeMax="0">
          0 0 0 0
        </DataArray>
      </PointData>
      <CellData>
      </CellData>
      <Points>
        <DataArray type="Float32" Name="Points" NumberOfComponents="3" format="ascii" RangeMin="0.07576601946387851" RangeMax="18.446021794433346">
          -0.07511710375547409 0.009894969873130322 0 -0.6434828639030457 -0.8177488446235657 0
          -0.4618493318557739 -4.995514392852783 0 17.93229103088379 4.323038101196289 0
          <InformationKey name="L2_NORM_RANGE" location="vtkDataArray" length="2">
            <Value index="0">
              0.075766019464
            </Value>
            <Value index="1">
              18.446021794
            </Value>
          </InformationKey>
        </DataArray>
      </Points>
      <Cells>
        <DataArray type="Int64" Name="connectivity" format="ascii" RangeMin="1e+299" RangeMax="-1e+299">
        </DataArray>
        <DataArray type="Int64" Name="offsets" format="ascii" RangeMin="1e+299" RangeMax="-1e+299">
        </DataArray>
        <DataArray type="UInt8" Name="types" format="ascii" RangeMin="1e+299" RangeMax="-1e+299">
        </DataArray>
      </Cells>
    </Piece>
  </UnstructuredGrid>
</VTKFile>
