<?xml version="1.0"?>
<VTKFile type="UnstructuredGrid" version="0.1" byte_order="LittleEndian" header_type="UInt32" compressor="vtkZLibDataCompressor">
  <UnstructuredGrid>
    <Piece NumberOfPoints="4" NumberOfCells="0">
      <PointData>
        <DataArray type="Float32" Name="mass" format="ascii" RangeMin="9.9999998245167e-15" RangeMax="1">
          1 0.000003000000106112566 0.0009549999958835542 9.9999998245167e-15
        </DataArray>
        <DataArray type="Float32" Name="velocity" NumberOfComponents="3" format="ascii" RangeMin="0.000606709721290319" RangeMax="0.9992015654559917">
          -0.00043867211206816137 -0.00041912225424312055 0 0.9983118176460266 -0.04215783625841141 0
          0.02806510217487812 0.4390038847923279 0 -0.12364469468593597 0.021730054169893265 0
          <InformationKey name="L2_NORM_RANGE" location="vtkDataArray" length="2">
            <Value index="0">
              0.00060670972129
            </Value>
            <Value index="1">
              0.99920156546
            </Value>
          </InformationKey>
        </DataArray>
        <DataArray type="Float32" Name="force" NumberOfComponents="3" format="ascii" RangeMin="1.3090567291874005e-17" RangeMax="0.00003572336422407006">
          0.0000354829644493293 -0.00000413738871429814 0 1.4615015686558763e-7 0.000002994116130139446 0
          -0.000035629116609925404 0.000001143272356785019 0 -1.2984671801454215e-17 -1.6617010054763915e-18 0
          <InformationKey name="L2_NORM_RANGE" location="vtkDataArray" length="2">
            <Value index="0">
              1.3090567292e-17
            </Value>
            <Value index="1">
              3.5723364224e-05
            </Value>
          </InformationKey>
        </DataArray>
        <DataArray type="Int32" Name="type" format="ascii" RangeMin="0" RangeMax="0">
          0 0 0 0
        </DataArray>
      </PointData>
      <CellData>
      </CellData>
      <Points>
        <DataArray type="Float32" Name="Points" NumberOfComponents="3" format="ascii" RangeMin="0.057789840431447616" RangeMax="27.602341990384026">
          -0.05754828825592995 0.005278273951262236 0 -0.10628829151391983 -0.9939239025115967 0
          5.1157145500183105 -0.1607249677181244 0 27.377643585205078 3.5148136615753174 0
          <InformationKey name="L2_NORM_RANGE" location="vtkDataArray" length="2">
            <Value index="0">
              0.057789840431
            </Value>
            <Value index="1">
              27.60234199
            </Value>
          </InformationKey>
        </DataArray>
      </Points>
      <Cells>
        <DataArray type="Int64" Name="connectivity" format="ascii" RangeMin="1e+299" RangeMax="-1e+299">
        </DataArray>
        <DataArray type="Int64" Name="offsets" format="ascii" RangeMin="1e+299" RangeMax="-1e+299">
        </DataArray>
        <DataArray type="UInt8" Name="types" format="ascii" RangeMin="1e+299" RangeMax="-1e+299">
        </DataArray>
      </Cells>
    </Piece>
  </UnstructuredGrid>
</VTKFile>
