<?xml version="1.0"?>
<VTKFile type="UnstructuredGrid" version="0.1" byte_order="LittleEndian" header_type="UInt32" compressor="vtkZLibDataCompressor">
  <UnstructuredGrid>
    <Piece NumberOfPoints="4" NumberOfCells="0">
      <PointData>
        <DataArray type="Float32" Name="mass" format="ascii" RangeMin="9.9999998245167e-15" RangeMax="1">
          1 0.000003000000106112566 0.0009549999958835542 9.9999998245167e-15
        </DataArray>
        <DataArray type="Float32" Name="velocity" NumberOfComponents="3" format="ascii" RangeMin="0.0008389066368178014" RangeMax="1.0060153672745433">
          -0.0008383661624975502 0.000030108518330962397 0 -0.6053316593170166 0.8035175800323486 0
          0.45163053274154663 -0.03405138477683067 0 0.051274992525577545 0.028081055730581284 0
          <InformationKey name="L2_NORM_RANGE" location="vtkDataArray" length="2">
            <Value index="0">
              0.00083890663682
            </Value>
            <Value index="1">
              1.0060153673
            </Value>
          </InformationKey>
        </DataArray>
        <DataArray type="Float32" Name="force" NumberOfComponents="3" format="ascii" RangeMin="8.890001660013538e-18" RangeMax="0.000037891194796508886">
          -5.442113319986674e-7 -0.00003594163717934862 0 -0.0000024159560325642815 -0.0000018337512983634952 0
          0.000002960167421406368 0.00003777538950089365 0 -8.876943337533245e-18 4.816705277132899e-19 0
          <InformationKey name="L2_NORM_RANGE" location="vtkDataArray" length="2">
            <Value index="0">
              8.89000166e-18
            </Value>
            <Value index="1">
              3.7891194797e-05
            </Value>
          </InformationKey>
        </DataArray>
        <DataArray type="Int32" Name="type" format="ascii" RangeMin="0" RangeMax="0">
          0 0 0 0
        </DataArray>
      </PointData>
      <CellData>
      </CellData>
      <Points>
        <DataArray type="Float32" Name="Points" NumberOfComponents="3" format="ascii" RangeMin="0.1663958109654069" RangeMax="33.38796222791343">
          -0.1661016196012497 0.009890291839838028 0 0.6261038780212402 0.6111640930175781 0
          -0.5583032369613647 -4.995105266571045 0 33.33871841430664 -1.8126986026763916 0
          <InformationKey name="L2_NORM_RANGE" location="vtkDataArray" length="2">
            <Value index="0">
              0.16639581097
            </Value>
            <Value index="1">
              33.387962228
            </Value>
          </InformationKey>
        </DataArray>
      </Points>
      <Cells>
        <DataArray type="Int64" Name="connectivity" format="ascii" RangeMin="1e+299" RangeMax="-1e+299">
        </DataArray>
        <DataArray type="Int64" Name="offsets" format="ascii" RangeMin="1e+299" RangeMax="-1e+299">
        </DataArray>
        <DataArray type="UInt8" Name="types" format="ascii" RangeMin="1e+299" RangeMax="-1e+299">
        </DataArray>
      </Cells>
    </Piece>
  </UnstructuredGrid>
</VTKFile>
