<?xml version="1.0"?>
<VTKFile type="UnstructuredGrid" version="0.1" byte_order="LittleEndian" header_type="UInt32" compressor="vtkZLibDataCompressor">
  <UnstructuredGrid>
    <Piece NumberOfPoints="4" NumberOfCells="0">
      <PointData>
        <DataArray type="Float32" Name="mass" format="ascii" RangeMin="9.9999998245167e-15" RangeMax="1">
          1 0.000003000000106112566 0.0009549999958835542 9.9999998245167e-15
        </DataArray>
        <DataArray type="Float32" Name="velocity" NumberOfComponents="3" format="ascii" RangeMin="0.0006926963709482188" RangeMax="0.9937263468209">
          -0.0005739117623306811 -0.0003878834249917418 0 -0.2558598518371582 -0.9602227807044983 0
          0.17361712455749512 0.4091770648956299 0 0.1416930854320526 0.018952760845422745 0
          <InformationKey name="L2_NORM_RANGE" location="vtkDataArray" length="2">
            <Value index="0">
              0.00069269637095
            </Value>
            <Value index="1">
              0.99372634682
            </Value>
          </InformationKey>
        </DataArray>
        <DataArray type="Float32" Name="force" NumberOfComponents="3" format="ascii" RangeMin="1.571379479299379e-17" RangeMax="0.00003642281172944102">
          0.00003106812800979242 -0.000012488539141486399 0 0.0000028612241749215173 -7.560956305496802e-7 0
          -0.00003392935104784556 0.000013244634828879498 0 -1.552954010526852e-17 2.3993188440003932e-18 0
          <InformationKey name="L2_NORM_RANGE" location="vtkDataArray" length="2">
            <Value index="0">
              1.5713794793e-17
            </Value>
            <Value index="1">
              3.6422811729e-05
            </Value>
          </InformationKey>
        </DataArray>
        <DataArray type="Int32" Name="type" format="ascii" RangeMin="0" RangeMax="0">
          0 0 0 0
        </DataArray>
      </PointData>
      <CellData>
      </CellData>
      <Points>
        <DataArray type="Float32" Name="Points" NumberOfComponents="3" format="ascii" RangeMin="0.32858875326026965" RangeMax="24.919637572384584">
          -0.3285164535045624 0.0068926443345844746 0 -1.3019450902938843 0.26412442326545715 0
          4.441473960876465 -1.8551172018051147 0 24.620466232299805 -3.8498024940490723 0
          <InformationKey name="L2_NORM_RANGE" location="vtkDataArray" length="2">
            <Value index="0">
              0.32858875326
            </Value>
            <Value index="1">
              24.919637572
            </Value>
          </InformationKey>
        </DataArray>
      </Points>
      <Cells>
        <DataArray type="Int64" Name="connectivity" format="ascii" RangeMin="1e+299" RangeMax="-1e+299">
        </DataArray>
        <DataArray type="Int64" Name="offsets" format="ascii" RangeMin="1e+299" RangeMax="-1e+299">
        </DataArray>
        <DataArray type="UInt8" Name="types" format="ascii" RangeMin="1e+299" RangeMax="-1e+299">
        </DataArray>
      </Cells>
    </Piece>
  </UnstructuredGrid>
</VTKFile>
