<?xml version="1.0"?>
<VTKFile type="UnstructuredGrid" version="0.1" byte_order="LittleEndian" header_type="UInt32" compressor="vtkZLibDataCompressor">
  <UnstructuredGrid>
    <Piece NumberOfPoints="4" NumberOfCells="0">
      <PointData>
        <DataArray type="Float32" Name="mass" format="ascii" RangeMin="9.9999998245167e-15" RangeMax="1">
          1 0.000003000000106112566 0.0009549999958835542 9.9999998245167e-15
        </DataArray>
        <DataArray type="Float32" Name="velocity" NumberOfComponents="3" format="ascii" RangeMin="0.0003188895392865832" RangeMax="0.9940205341883243">
          -0.00012064084148732945 0.0002951886272057891 0 -0.5873600840568542 -0.801925778388977 0
          -0.29997074604034424 -0.3065788745880127 0 -0.044654399156570435 0.029778629541397095 0
          <InformationKey name="L2_NORM_RANGE" location="vtkDataArray" length="2">
            <Value index="0">
              0.00031888953929
            </Value>
            <Value index="1">
              0.99402053419
            </Value>
          </InformationKey>
        </DataArray>
        <DataArray type="Float32" Name="force" NumberOfComponents="3" format="ascii" RangeMin="9.479475643725456e-18" RangeMax="0.000036785490501087414">
          -0.00002606475209177006 0.000025957677280530334 0 0.0000023993572995095747 -0.0000017419777122995583 0
          0.000023665395929128863 -0.0000242157002503518 0 -9.472878992402173e-18 -3.535846083891741e-19 0
          <InformationKey name="L2_NORM_RANGE" location="vtkDataArray" length="2">
            <Value index="0">
              9.4794756437e-18
            </Value>
            <Value index="1">
              3.6785490501e-05
            </Value>
          </InformationKey>
        </DataArray>
        <DataArray type="Int32" Name="type" format="ascii" RangeMin="0" RangeMax="0">
          0 0 0 0
        </DataArray>
      </PointData>
      <CellData>
      </CellData>
      <Points>
        <DataArray type="Float32" Name="Points" NumberOfComponents="3" format="ascii" RangeMin="0.39471413274334327" RangeMax="32.09742620657254">
          -0.39471131563186646 0.0014912744518369436 0 -1.2086610794067383 0.5924471020698547 0
          -4.106642246246338 3.799736261367798 0 32.074378967285156 1.2161344289779663 0
          <InformationKey name="L2_NORM_RANGE" location="vtkDataArray" length="2">
            <Value index="0">
              0.39471413274
            </Value>
            <Value index="1">
              32.097426207
            </Value>
          </InformationKey>
        </DataArray>
      </Points>
      <Cells>
        <DataArray type="Int64" Name="connectivity" format="ascii" RangeMin="1e+299" RangeMax="-1e+299">
        </DataArray>
        <DataArray type="Int64" Name="offsets" format="ascii" RangeMin="1e+299" RangeMax="-1e+299">
        </DataArray>
        <DataArray type="UInt8" Name="types" format="ascii" RangeMin="1e+299" RangeMax="-1e+299">
        </DataArray>
      </Cells>
    </Piece>
  </UnstructuredGrid>
</VTKFile>
