<?xml version="1.0"?>
<VTKFile type="UnstructuredGrid" version="0.1" byte_order="LittleEndian" header_type="UInt32" compressor="vtkZLibDataCompressor">
  <UnstructuredGrid>
    <Piece NumberOfPoints="4" NumberOfCells="0">
      <PointData>
        <DataArray type="Float32" Name="mass" format="ascii" RangeMin="9.9999998245167e-15" RangeMax="1">
          1 0.000003000000106112566 0.0009549999958835542 9.9999998245167e-15
        </DataArray>
        <DataArray type="Float32" Name="velocity" NumberOfComponents="3" format="ascii" RangeMin="0.0003238698786809747" RangeMax="0.9931169408495926">
          -0.000124683792819269 0.00029890742735005915 0 -0.3324756622314453 -0.9358104467391968 0
          -0.29653799533843994 -0.31005236506462097 0 -0.16821807622909546 0.014974788762629032 0
          <InformationKey name="L2_NORM_RANGE" location="vtkDataArray" length="2">
            <Value index="0">
              0.00032386987868
            </Value>
            <Value index="1">
              0.99311694085
            </Value>
          </InformationKey>
        </DataArray>
        <DataArray type="Float32" Name="force" NumberOfComponents="3" format="ascii" RangeMin="1.809500411435475e-17" RangeMax="0.000036568459345027346">
          -0.000026737550797406584 0.000024947055862867273 0 0.000002791890437947586 -9.837796142164734e-7 0
          0.000023945660359458998 -0.00002396327727183234 0 -1.7822873538153412e-17 -3.126396126773785e-18 0
          <InformationKey name="L2_NORM_RANGE" location="vtkDataArray" length="2">
            <Value index="0">
              1.8095004114e-17
            </Value>
            <Value index="1">
              3.6568459345e-05
            </Value>
          </InformationKey>
        </DataArray>
        <DataArray type="Int32" Name="type" format="ascii" RangeMin="0" RangeMax="0">
          0 0 0 0
        </DataArray>
      </PointData>
      <CellData>
      </CellData>
      <Points>
        <DataArray type="Float32" Name="Points" NumberOfComponents="3" format="ascii" RangeMin="0.06111500486496478" RangeMax="23.456847767988275">
          -0.06109578534960747 0.0015325900167226791 0 -1.0105539560317993 0.33612093329429626 0
          -3.814084768295288 3.75727915763855 0 23.101512908935547 4.067408084869385 0
          <InformationKey name="L2_NORM_RANGE" location="vtkDataArray" length="2">
            <Value index="0">
              0.061115004865
            </Value>
            <Value index="1">
              23.456847768
            </Value>
          </InformationKey>
        </DataArray>
      </Points>
      <Cells>
        <DataArray type="Int64" Name="connectivity" format="ascii" RangeMin="1e+299" RangeMax="-1e+299">
        </DataArray>
        <DataArray type="Int64" Name="offsets" format="ascii" RangeMin="1e+299" RangeMax="-1e+299">
        </DataArray>
        <DataArray type="UInt8" Name="types" format="ascii" RangeMin="1e+299" RangeMax="-1e+299">
        </DataArray>
      </Cells>
    </Piece>
  </UnstructuredGrid>
</VTKFile>
