<?xml version="1.0"?>
<VTKFile type="UnstructuredGrid" version="0.1" byte_order="LittleEndian" header_type="UInt32" compressor="vtkZLibDataCompressor">
  <UnstructuredGrid>
    <Piece NumberOfPoints="4" NumberOfCells="0">
      <PointData>
        <DataArray type="Float32" Name="mass" format="ascii" RangeMin="9.9999998245167e-15" RangeMax="1">
          1 0.000003000000106112566 0.0009549999958835542 9.9999998245167e-15
        </DataArray>
        <DataArray type="Float32" Name="velocity" NumberOfComponents="3" format="ascii" RangeMin="0.00038946028489299787" RangeMax="0.993631436168574">
          -0.00017983964062295854 0.00034545190283097327 0 -0.4893806278705597 -0.8647601008415222 0
          -0.23829028010368347 -0.3590131998062134 0 0.16694244742393494 0.014787903055548668 0
          <InformationKey name="L2_NORM_RANGE" location="vtkDataArray" length="2">
            <Value index="0">
              0.00038946028489
            </Value>
            <Value index="1">
              0.99363143617
            </Value>
          </InformationKey>
        </DataArray>
        <DataArray type="Float32" Name="force" NumberOfComponents="3" format="ascii" RangeMin="1.7803903761371212e-17" RangeMax="0.00003712411021452054">
          -0.00003055221532122232 0.00002108937405864708 0 0.000002584121148174745 -0.0000014496869198410423 0
          0.000027968095309915952 -0.00001963968861673493 0 -1.7533221357416944e-17 3.092755725237019e-18 0
          <InformationKey name="L2_NORM_RANGE" location="vtkDataArray" length="2">
            <Value index="0">
              1.7803903761e-17
            </Value>
            <Value index="1">
              3.7124110215e-05
            </Value>
          </InformationKey>
        </DataArray>
        <DataArray type="Int32" Name="type" format="ascii" RangeMin="0" RangeMax="0">
          0 0 0 0
        </DataArray>
      </PointData>
      <CellData>
      </CellData>
      <Points>
        <DataArray type="Float32" Name="Points" NumberOfComponents="3" format="ascii" RangeMin="0.12210325593692997" RangeMax="23.586861807272253">
          -0.12208312749862671 0.002217000350356102 0 -0.9996224641799927 0.4945223927497864 0
          -4.448242664337158 3.040121555328369 0 23.22515869140625 -4.1148576736450195 0
          <InformationKey name="L2_NORM_RANGE" location="vtkDataArray" length="2">
            <Value index="0">
              0.12210325594
            </Value>
            <Value index="1">
              23.586861807
            </Value>
          </InformationKey>
        </DataArray>
      </Points>
      <Cells>
        <DataArray type="Int64" Name="connectivity" format="ascii" RangeMin="1e+299" RangeMax="-1e+299">
        </DataArray>
        <DataArray type="Int64" Name="offsets" format="ascii" RangeMin="1e+299" RangeMax="-1e+299">
        </DataArray>
        <DataArray type="UInt8" Name="types" format="ascii" RangeMin="1e+299" RangeMax="-1e+299">
        </DataArray>
      </Cells>
    </Piece>
  </UnstructuredGrid>
</VTKFile>
