<?xml version="1.0"?>
<VTKFile type="UnstructuredGrid" version="0.1" byte_order="LittleEndian" header_type="UInt32" compressor="vtkZLibDataCompressor">
  <UnstructuredGrid>
    <Piece NumberOfPoints="4" NumberOfCells="0">
      <PointData>
        <DataArray type="Float32" Name="mass" format="ascii" RangeMin="9.9999998245167e-15" RangeMax="1">
          1 0.000003000000106112566 0.0009549999958835542 9.9999998245167e-15
        </DataArray>
        <DataArray type="Float32" Name="velocity" NumberOfComponents="3" format="ascii" RangeMin="0.0007931566097645866" RangeMax="0.9975918025240467">
          -0.0007454106817021966 0.00027103564934805036 0 0.9645582437515259 -0.2545914351940155 0
          0.34936338663101196 -0.2830072045326233 0 0.004849058575928211 0.030374426394701004 0
          <InformationKey name="L2_NORM_RANGE" location="vtkDataArray" length="2">
            <Value index="0">
              0.00079315660976
            </Value>
            <Value index="1">
              0.99759180252
            </Value>
          </InformationKey>
        </DataArray>
        <DataArray type="Float32" Name="force" NumberOfComponents="3" format="ascii" RangeMin="8.905451100033609e-18" RangeMax="0.00004003947100434167">
          -0.0000248564756475389 -0.000031389725336339325 0 7.827734407328535e-7 0.0000028857468805654207 0
          0.000024073702661553398 0.000028503980502136983 0 -8.904671258846635e-18 1.1785188568924492e-19 0
          <InformationKey name="L2_NORM_RANGE" location="vtkDataArray" length="2">
            <Value index="0">
              8.9054511e-18
            </Value>
            <Value index="1">
              4.0039471004e-05
            </Value>
          </InformationKey>
        </DataArray>
        <DataArray type="Int32" Name="type" format="ascii" RangeMin="0" RangeMax="0">
          0 0 0 0
        </DataArray>
      </PointData>
      <CellData>
      </CellData>
      <Points>
        <DataArray type="Float32" Name="Points" NumberOfComponents="3" format="ascii" RangeMin="0.37294069536989555" RangeMax="33.150044358868534">
          -0.3728366792201996 0.008807547390460968 0 -0.6350885629653931 -0.9578937888145447 0
          -3.6372954845428467 -3.856412172317505 0 33.14715576171875 -0.4376138746738434 0
          <InformationKey name="L2_NORM_RANGE" location="vtkDataArray" length="2">
            <Value index="0">
              0.37294069537
            </Value>
            <Value index="1">
              33.150044359
            </Value>
          </InformationKey>
        </DataArray>
      </Points>
      <Cells>
        <DataArray type="Int64" Name="connectivity" format="ascii" RangeMin="1e+299" RangeMax="-1e+299">
        </DataArray>
        <DataArray type="Int64" Name="offsets" format="ascii" RangeMin="1e+299" RangeMax="-1e+299">
        </DataArray>
        <DataArray type="UInt8" Name="types" format="ascii" RangeMin="1e+299" RangeMax="-1e+299">
        </DataArray>
      </Cells>
    </Piece>
  </UnstructuredGrid>
</VTKFile>
