<?xml version="1.0"?>
<VTKFile type="UnstructuredGrid" version="0.1" byte_order="LittleEndian" header_type="UInt32" compressor="vtkZLibDataCompressor">
  <UnstructuredGrid>
    <Piece NumberOfPoints="4" NumberOfCells="0">
      <PointData>
        <DataArray type="Float32" Name="mass" format="ascii" RangeMin="9.9999998245167e-15" RangeMax="1">
          1 0.000003000000106112566 0.0009549999958835542 9.9999998245167e-15
        </DataArray>
        <DataArray type="Float32" Name="velocity" NumberOfComponents="3" format="ascii" RangeMin="0.0008428916699474444" RangeMax="1.0037785596202176">
          -0.0008417884819209576 -0.00004311054362915456 0 0.7773471474647522 0.6350612640380859 0
          0.4508706331253052 0.043146975338459015 0 -0.17268355190753937 0.01416768878698349 0
          <InformationKey name="L2_NORM_RANGE" location="vtkDataArray" length="2">
            <Value index="0">
              0.00084289166995
            </Value>
            <Value index="1">
              1.0037785596
            </Value>
          </InformationKey>
        </DataArray>
        <DataArray type="Float32" Name="force" NumberOfComponents="3" format="ascii" RangeMin="1.850591501765261e-17" RangeMax="0.00004045775958079059">
          0.000005604841589956777 -0.00004006764356745407 0 -0.0000019013292558156536 0.0000023548645913251676 0
          -0.0000037035124478279613 0.000037712779885623604 0 -1.8212622844814923e-17 -3.2816550326178443e-18 0
          <InformationKey name="L2_NORM_RANGE" location="vtkDataArray" length="2">
            <Value index="0">
              1.8505915018e-17
            </Value>
            <Value index="1">
              4.0457759581e-05
            </Value>
          </InformationKey>
        </DataArray>
        <DataArray type="Int32" Name="type" format="ascii" RangeMin="0" RangeMax="0">
          0 0 0 0
        </DataArray>
      </PointData>
      <CellData>
      </CellData>
      <Points>
        <DataArray type="Float32" Name="Points" NumberOfComponents="3" format="ascii" RangeMin="0.2589184959385093" RangeMax="23.003070818476314">
          -0.2587296962738037 0.00988593976944685 0 0.36666378378868103 -0.7647412419319153 0
          0.23190681636333466 -4.9862260818481445 0 22.62934112548828 4.129671573638916 0
          <InformationKey name="L2_NORM_RANGE" location="vtkDataArray" length="2">
            <Value index="0">
              0.25891849594
            </Value>
            <Value index="1">
              23.003070818
            </Value>
          </InformationKey>
        </DataArray>
      </Points>
      <Cells>
        <DataArray type="Int64" Name="connectivity" format="ascii" RangeMin="1e+299" RangeMax="-1e+299">
        </DataArray>
        <DataArray type="Int64" Name="offsets" format="ascii" RangeMin="1e+299" RangeMax="-1e+299">
        </DataArray>
        <DataArray type="UInt8" Name="types" format="ascii" RangeMin="1e+299" RangeMax="-1e+299">
        </DataArray>
      </Cells>
    </Piece>
  </UnstructuredGrid>
</VTKFile>
