<?xml version="1.0"?>
<VTKFile type="UnstructuredGrid" version="0.1" byte_order="LittleEndian" header_type="UInt32" compressor="vtkZLibDataCompressor">
  <UnstructuredGrid>
    <Piece NumberOfPoints="4" NumberOfCells="0">
      <PointData>
        <DataArray type="Float32" Name="mass" format="ascii" RangeMin="9.9999998245167e-15" RangeMax="1">
          1 0.000003000000106112566 0.0009549999958835542 9.9999998245167e-15
        </DataArray>
        <DataArray type="Float32" Name="velocity" NumberOfComponents="3" format="ascii" RangeMin="0.0007937450351752828" RangeMax="1.004235602772176">
          -0.0007521666120737791 0.0002535282401368022 0 -0.854836642742157 0.5270137190818787 0
          0.36215299367904663 -0.26713013648986816 0 0.17823220789432526 0.012597349472343922 0
          <InformationKey name="L2_NORM_RANGE" location="vtkDataArray" length="2">
            <Value index="0">
              0.00079374503518
            </Value>
            <Value index="1">
              1.0042356028
            </Value>
          </InformationKey>
        </DataArray>
        <DataArray type="Float32" Name="force" NumberOfComponents="3" format="ascii" RangeMin="2.0606423906677224e-17" RangeMax="0.000037380840426720985">
          -0.0000211973674595356 -0.000027066716938861646 0 -0.0000015702059954492142 -0.000002580624595793779 0
          0.00002276757368235849 0.0000296473408525344 0 -2.0230905489136133e-17 3.9160144677107796e-18 0
          <InformationKey name="L2_NORM_RANGE" location="vtkDataArray" length="2">
            <Value index="0">
              2.0606423907e-17
            </Value>
            <Value index="1">
              3.7380840427e-05
            </Value>
          </InformationKey>
        </DataArray>
        <DataArray type="Int32" Name="type" format="ascii" RangeMin="0" RangeMax="0">
          0 0 0 0
        </DataArray>
      </PointData>
      <CellData>
      </CellData>
      <Points>
        <DataArray type="Float32" Name="Points" NumberOfComponents="3" format="ascii" RangeMin="0.31269675984037837" RangeMax="21.7289470835471">
          -0.3125689625740051 0.008939085528254509 0 0.20544376969337463 0.8602946400642395 0
          -3.3911125659942627 -3.9998600482940674 0 21.32270622253418 -4.182025909423828 0
          <InformationKey name="L2_NORM_RANGE" location="vtkDataArray" length="2">
            <Value index="0">
              0.31269675984
            </Value>
            <Value index="1">
              21.728947084
            </Value>
          </InformationKey>
        </DataArray>
      </Points>
      <Cells>
        <DataArray type="Int64" Name="connectivity" format="ascii" RangeMin="1e+299" RangeMax="-1e+299">
        </DataArray>
        <DataArray type="Int64" Name="offsets" format="ascii" RangeMin="1e+299" RangeMax="-1e+299">
        </DataArray>
        <DataArray type="UInt8" Name="types" format="ascii" RangeMin="1e+299" RangeMax="-1e+299">
        </DataArray>
      </Cells>
    </Piece>
  </UnstructuredGrid>
</VTKFile>
