<?xml version="1.0"?>
<VTKFile type="UnstructuredGrid" version="0.1" byte_order="LittleEndian" header_type="UInt32" compressor="vtkZLibDataCompressor">
  <UnstructuredGrid>
    <Piece NumberOfPoints="4" NumberOfCells="0">
      <PointData>
        <DataArray type="Float32" Name="mass" format="ascii" RangeMin="9.9999998245167e-15" RangeMax="1">
          1 0.000003000000106112566 0.0009549999958835542 9.9999998245167e-15
        </DataArray>
        <DataArray type="Float32" Name="velocity" NumberOfComponents="3" format="ascii" RangeMin="0.0005690692979838803" RangeMax="1.0073877923172065">
          -0.000389689055737108 0.0004147074942011386 0 0.022053949534893036 1.0071463584899902 0
          -0.020159276202321053 -0.4374125003814697 0 -0.08233986794948578 0.026121579110622406 0
          <InformationKey name="L2_NORM_RANGE" location="vtkDataArray" length="2">
            <Value index="0">
              0.00056906929798
            </Value>
            <Value index="1">
              1.0073877923
            </Value>
          </InformationKey>
        </DataArray>
        <DataArray type="Float32" Name="force" NumberOfComponents="3" format="ascii" RangeMin="1.0271729909997774e-17" RangeMax="0.00003531298717715084">
          -0.000032164643926080316 0.0000026784130113810534 0 -0.0000030413602871703915 6.83164600445707e-8 0
          0.0000352060014847666 -0.0000027467294785310514 0 -1.0235010121584031e-17 -8.677575439115102e-19 0
          <InformationKey name="L2_NORM_RANGE" location="vtkDataArray" length="2">
            <Value index="0">
              1.027172991e-17
            </Value>
            <Value index="1">
              3.5312987177e-05
            </Value>
          </InformationKey>
        </DataArray>
        <DataArray type="Int32" Name="type" format="ascii" RangeMin="0" RangeMax="0">
          0 0 0 0
        </DataArray>
      </PointData>
      <CellData>
      </CellData>
      <Points>
        <DataArray type="Float32" Name="Points" NumberOfComponents="3" format="ascii" RangeMin="0.03325294154241597" RangeMax="31.18032754275525">
          -0.0329146683216095 0.004731039050966501 0 0.9598989486694336 -0.01756887137889862 0
          -5.2175374031066895 0.4092290699481964 0 31.068185806274414 2.6420931816101074 0
          <InformationKey name="L2_NORM_RANGE" location="vtkDataArray" length="2">
            <Value index="0">
              0.033252941542
            </Value>
            <Value index="1">
              31.180327543
            </Value>
          </InformationKey>
        </DataArray>
      </Points>
      <Cells>
        <DataArray type="Int64" Name="connectivity" format="ascii" RangeMin="1e+299" RangeMax="-1e+299">
        </DataArray>
        <DataArray type="Int64" Name="offsets" format="ascii" RangeMin="1e+299" RangeMax="-1e+299">
        </DataArray>
        <DataArray type="UInt8" Name="types" format="ascii" RangeMin="1e+299" RangeMax="-1e+299">
        </DataArray>
      </Cells>
    </Piece>
  </UnstructuredGrid>
</VTKFile>
