<?xml version="1.0"?>
<VTKFile type="UnstructuredGrid" version="0.1" byte_order="LittleEndian" header_type="UInt32" compressor="vtkZLibDataCompressor">
  <UnstructuredGrid>
    <Piece NumberOfPoints="4" NumberOfCells="0">
      <PointData>
        <DataArray type="Float32" Name="mass" format="ascii" RangeMin="9.9999998245167e-15" RangeMax="1">
          1 0.000003000000106112566 0.0009549999958835542 9.9999998245167e-15
        </DataArray>
        <DataArray type="Float32" Name="velocity" NumberOfComponents="3" format="ascii" RangeMin="0.0008318658397882001" RangeMax="0.993109214766268">
          -0.0008233303087763488 -0.00011886117135873064 0 -0.036216478794813156 -0.992448627948761 0
          0.43409839272499084 0.12757959961891174 0 -0.10627660155296326 0.02379458397626877 0
          <InformationKey name="L2_NORM_RANGE" location="vtkDataArray" length="2">
            <Value index="0">
              0.00083186583979
            </Value>
            <Value index="1">
              0.99310921477
            </Value>
          </InformationKey>
        </DataArray>
        <DataArray type="Float32" Name="force" NumberOfComponents="3" format="ascii" RangeMin="1.1721246046511018e-17" RangeMax="0.00003781011829824479">
          0.000008011343197722454 -0.000036079825804335997 0 0.000002956171783807804 -1.0468151145914817e-7 0
          -0.000010967514754156582 0.00003618450864451006 0 -1.1651309593577937e-17 -1.2785122750481922e-18 0
          <InformationKey name="L2_NORM_RANGE" location="vtkDataArray" length="2">
            <Value index="0">
              1.1721246047e-17
            </Value>
            <Value index="1">
              3.7810118298e-05
            </Value>
          </InformationKey>
        </DataArray>
        <DataArray type="Int32" Name="type" format="ascii" RangeMin="0" RangeMax="0">
          0 0 0 0
        </DataArray>
      </PointData>
      <CellData>
      </CellData>
      <Points>
        <DataArray type="Float32" Name="Points" NumberOfComponents="3" format="ascii" RangeMin="0.049191559833178376" RangeMax="29.176139052128754">
          -0.04822458699345589 0.009705604985356331 0 -1.0546729564666748 0.04531622678041458 0
          1.4095748662948608 -4.799938201904297 0 29.00096893310547 3.192317485809326 0
          <InformationKey name="L2_NORM_RANGE" location="vtkDataArray" length="2">
            <Value index="0">
              0.049191559833
            </Value>
            <Value index="1">
              29.176139052
            </Value>
          </InformationKey>
        </DataArray>
      </Points>
      <Cells>
        <DataArray type="Int64" Name="connectivity" format="ascii" RangeMin="1e+299" RangeMax="-1e+299">
        </DataArray>
        <DataArray type="Int64" Name="offsets" format="ascii" RangeMin="1e+299" RangeMax="-1e+299">
        </DataArray>
        <DataArray type="UInt8" Name="types" format="ascii" RangeMin="1e+299" RangeMax="-1e+299">
        </DataArray>
      </Cells>
    </Piece>
  </UnstructuredGrid>
</VTKFile>
