<?xml version="1.0"?>
<VTKFile type="UnstructuredGrid" version="0.1" byte_order="LittleEndian" header_type="UInt32" compressor="vtkZLibDataCompressor">
  <UnstructuredGrid>
    <Piece NumberOfPoints="4" NumberOfCells="0">
      <PointData>
        <DataArray type="Float32" Name="mass" format="ascii" RangeMin="9.9999998245167e-15" RangeMax="1">
          1 0.000003000000106112566 0.0009549999958835542 9.9999998245167e-15
        </DataArray>
        <DataArray type="Float32" Name="velocity" NumberOfComponents="3" format="ascii" RangeMin="0.000804367813806149" RangeMax="1.0048688559453256">
          -0.0007722671143710613 0.00022496907331515104 0 -0.813319981098175 0.5901457667350769 0
          0.3830702304840088 -0.23742356896400452 0 -0.02570170909166336 0.029264023527503014 0
          <InformationKey name="L2_NORM_RANGE" location="vtkDataArray" length="2">
            <Value index="0">
              0.00080436781381
            </Value>
            <Value index="1">
              1.0048688559
            </Value>
          </InformationKey>
        </DataArray>
        <DataArray type="Float32" Name="force" NumberOfComponents="3" format="ascii" RangeMin="8.468414553417733e-18" RangeMax="0.000037497529450172605">
          -0.000018537979485699907 -0.00002906896042986773 0 -0.000001763196905812947 -0.000002457649543430307 0
          0.0000203011750272708 0.00003152660792693496 0 -8.465497910585081e-18 -2.222390029155341e-19 0
          <InformationKey name="L2_NORM_RANGE" location="vtkDataArray" length="2">
            <Value index="0">
              8.4684145534e-18
            </Value>
            <Value index="1">
              3.749752945e-05
            </Value>
          </InformationKey>
        </DataArray>
        <DataArray type="Int32" Name="type" format="ascii" RangeMin="0" RangeMax="0">
          0 0 0 0
        </DataArray>
      </PointData>
      <CellData>
      </CellData>
      <Points>
        <DataArray type="Float32" Name="Points" NumberOfComponents="3" format="ascii" RangeMin="0.013545484901332458" RangeMax="34.367678602145354">
          -0.009976242668926716 0.009162682108581066 0 0.570575475692749 0.8183686137199402 0
          -2.7422192096710205 -4.233860492706299 0 34.355674743652344 0.9082650542259216 0
          <InformationKey name="L2_NORM_RANGE" location="vtkDataArray" length="2">
            <Value index="0">
              0.013545484901
            </Value>
            <Value index="1">
              34.367678602
            </Value>
          </InformationKey>
        </DataArray>
      </Points>
      <Cells>
        <DataArray type="Int64" Name="connectivity" format="ascii" RangeMin="1e+299" RangeMax="-1e+299">
        </DataArray>
        <DataArray type="Int64" Name="offsets" format="ascii" RangeMin="1e+299" RangeMax="-1e+299">
        </DataArray>
        <DataArray type="UInt8" Name="types" format="ascii" RangeMin="1e+299" RangeMax="-1e+299">
        </DataArray>
      </Cells>
    </Piece>
  </UnstructuredGrid>
</VTKFile>
