<?xml version="1.0"?>
<VTKFile type="UnstructuredGrid" version="0.1" byte_order="LittleEndian" header_type="UInt32" compressor="vtkZLibDataCompressor">
  <UnstructuredGrid>
    <Piece NumberOfPoints="4" NumberOfCells="0">
      <PointData>
        <DataArray type="Float32" Name="mass" format="ascii" RangeMin="9.9999998245167e-15" RangeMax="1">
          1 0.000003000000106112566 0.0009549999958835542 9.9999998245167e-15
        </DataArray>
        <DataArray type="Float32" Name="velocity" NumberOfComponents="3" format="ascii" RangeMin="0.0007828563123942042" RangeMax="0.9939137375223234">
          -0.0007312092348001897 -0.00027963737375102937 0 -0.3531130254268646 -0.9290724992752075 0
          0.3386319875717163 0.2957325577735901 0 0.058729469776153564 0.028180278837680817 0
          <InformationKey name="L2_NORM_RANGE" location="vtkDataArray" length="2">
            <Value index="0">
              0.00078285631239
            </Value>
            <Value index="1">
              0.99391373752
            </Value>
          </InformationKey>
        </DataArray>
        <DataArray type="Float32" Name="force" NumberOfComponents="3" format="ascii" RangeMin="9.92996936873787e-18" RangeMax="0.000037304629916913675">
          0.000022339972929330543 -0.0000265442122326931 0 0.0000027704204512701835 -0.0000010438952813274227 0
          -0.000025110392016358674 0.00002758810660452582 0 -9.906918857782223e-18 6.762029350656014e-19 0
          <InformationKey name="L2_NORM_RANGE" location="vtkDataArray" length="2">
            <Value index="0">
              9.9299693687e-18
            </Value>
            <Value index="1">
              3.7304629917e-05
            </Value>
          </InformationKey>
        </DataArray>
        <DataArray type="Int32" Name="type" format="ascii" RangeMin="0" RangeMax="0">
          0 0 0 0
        </DataArray>
      </PointData>
      <CellData>
      </CellData>
      <Points>
        <DataArray type="Float32" Name="Points" NumberOfComponents="3" format="ascii" RangeMin="0.35551461033979853" RangeMax="31.397868025641714">
          -0.3554084897041321 0.008685828186571598 0 -1.2974097728729248 0.36362096667289734 0
          3.0503311157226562 -3.73310923576355 0 31.323598861694336 -2.1583027839660645 0
          <InformationKey name="L2_NORM_RANGE" location="vtkDataArray" length="2">
            <Value index="0">
              0.35551461034
            </Value>
            <Value index="1">
              31.397868026
            </Value>
          </InformationKey>
        </DataArray>
      </Points>
      <Cells>
        <DataArray type="Int64" Name="connectivity" format="ascii" RangeMin="1e+299" RangeMax="-1e+299">
        </DataArray>
        <DataArray type="Int64" Name="offsets" format="ascii" RangeMin="1e+299" RangeMax="-1e+299">
        </DataArray>
        <DataArray type="UInt8" Name="types" format="ascii" RangeMin="1e+299" RangeMax="-1e+299">
        </DataArray>
      </Cells>
    </Piece>
  </UnstructuredGrid>
</VTKFile>
