<?xml version="1.0"?>
<VTKFile type="UnstructuredGrid" version="0.1" byte_order="LittleEndian" header_type="UInt32" compressor="vtkZLibDataCompressor">
  <UnstructuredGrid>
    <Piece NumberOfPoints="4" NumberOfCells="0">
      <PointData>
        <DataArray type="Float32" Name="mass" format="ascii" RangeMin="9.9999998245167e-15" RangeMax="1">
          1 0.000003000000106112566 0.0009549999958835542 9.9999998245167e-15
        </DataArray>
        <DataArray type="Float32" Name="velocity" NumberOfComponents="3" format="ascii" RangeMin="0.0004978430608364568" RangeMax="1.0031439224277254">
          -0.00029880390502512455 0.00039820087840780616 0 0.8907676935195923 0.4613357186317444 0
          -0.11805591732263565 -0.4184134900569916 0 0.07018501311540604 0.026868926361203194 0
          <InformationKey name="L2_NORM_RANGE" location="vtkDataArray" length="2">
            <Value index="0">
              0.00049784306084
            </Value>
            <Value index="1">
              1.0031439224
            </Value>
          </InformationKey>
        </DataArray>
        <DataArray type="Float32" Name="force" NumberOfComponents="3" format="ascii" RangeMin="9.572663524652646e-18" RangeMax="0.00003479852538475574">
          -0.0000318163656629622 0.000007776664460834581 0 -0.0000013706704748983611 0.000002690332621568814 0
          0.00003318703602417372 -0.000010466996172908694 0 -9.546622144011276e-18 7.056150478049377e-19 0
          <InformationKey name="L2_NORM_RANGE" location="vtkDataArray" length="2">
            <Value index="0">
              9.5726635247e-18
            </Value>
            <Value index="1">
              3.4798525385e-05
            </Value>
          </InformationKey>
        </DataArray>
        <DataArray type="Int32" Name="type" format="ascii" RangeMin="0" RangeMax="0">
          0 0 0 0
        </DataArray>
      </PointData>
      <CellData>
      </CellData>
      <Points>
        <DataArray type="Float32" Name="Points" NumberOfComponents="3" format="ascii" RangeMin="0.1533441516484456" RangeMax="32.17930525642475">
          -0.15330150723457336 0.0036161753814667463 0 0.29918789863586426 -0.8845600485801697 0
          -5.1493821144104 1.5793490409851074 0 32.091251373291016 -2.378922462463379 0
          <InformationKey name="L2_NORM_RANGE" location="vtkDataArray" length="2">
            <Value index="0">
              0.15334415165
            </Value>
            <Value index="1">
              32.179305256
            </Value>
          </InformationKey>
        </DataArray>
      </Points>
      <Cells>
        <DataArray type="Int64" Name="connectivity" format="ascii" RangeMin="1e+299" RangeMax="-1e+299">
        </DataArray>
        <DataArray type="Int64" Name="offsets" format="ascii" RangeMin="1e+299" RangeMax="-1e+299">
        </DataArray>
        <DataArray type="UInt8" Name="types" format="ascii" RangeMin="1e+299" RangeMax="-1e+299">
        </DataArray>
      </Cells>
    </Piece>
  </UnstructuredGrid>
</VTKFile>
