<?xml version="1.0"?>
<VTKFile type="UnstructuredGrid" version="0.1" byte_order="LittleEndian" header_type="UInt32" compressor="vtkZLibDataCompressor">
  <UnstructuredGrid>
    <Piece NumberOfPoints="4" NumberOfCells="0">
      <PointData>
        <DataArray type="Float32" Name="mass" format="ascii" RangeMin="9.9999998245167e-15" RangeMax="1">
          1 0.000003000000106112566 0.0009549999958835542 9.9999998245167e-15
        </DataArray>
        <DataArray type="Float32" Name="velocity" NumberOfComponents="3" format="ascii" RangeMin="0.0008124630373674746" RangeMax="0.994286981005412">
          -0.0007849752437323332 0.00020954725914634764 0 -0.5504891276359558 -0.8279905319213867 0
          0.39555156230926514 -0.21682019531726837 0 0.1751527339220047 0.013188312761485577 0
          <InformationKey name="L2_NORM_RANGE" location="vtkDataArray" length="2">
            <Value index="0">
              0.00081246303737
            </Value>
            <Value index="1">
              0.99428698101
            </Value>
          </InformationKey>
        </DataArray>
        <DataArray type="Float32" Name="force" NumberOfComponents="3" format="ascii" RangeMin="2.0120895878960703e-17" RangeMax="0.00003756753209226273">
          -0.000021051682779216208 -0.000031023384508443996 0 0.000002475821702319081 -0.0000016302027461279067 0
          0.000018575861759018153 0.00003265358827775344 0 -1.976638236382228e-17 3.760396151890566e-18 0
          <InformationKey name="L2_NORM_RANGE" location="vtkDataArray" length="2">
            <Value index="0">
              2.0120895879e-17
            </Value>
            <Value index="1">
              3.7567532092e-05
            </Value>
          </InformationKey>
        </DataArray>
        <DataArray type="Int32" Name="type" format="ascii" RangeMin="0" RangeMax="0">
          0 0 0 0
        </DataArray>
      </PointData>
      <CellData>
      </CellData>
      <Points>
        <DataArray type="Float32" Name="Points" NumberOfComponents="3" format="ascii" RangeMin="0.313890257814859" RangeMax="21.992252114896043">
          -0.31375256180763245 0.009296446107327938 0 -1.1539899110794067 0.5625084638595581 0
          -2.806812047958374 -4.373124122619629 0 21.594802856445312 -4.162168025970459 0
          <InformationKey name="L2_NORM_RANGE" location="vtkDataArray" length="2">
            <Value index="0">
              0.31389025781
            </Value>
            <Value index="1">
              21.992252115
            </Value>
          </InformationKey>
        </DataArray>
      </Points>
      <Cells>
        <DataArray type="Int64" Name="connectivity" format="ascii" RangeMin="1e+299" RangeMax="-1e+299">
        </DataArray>
        <DataArray type="Int64" Name="offsets" format="ascii" RangeMin="1e+299" RangeMax="-1e+299">
        </DataArray>
        <DataArray type="UInt8" Name="types" format="ascii" RangeMin="1e+299" RangeMax="-1e+299">
        </DataArray>
      </Cells>
    </Piece>
  </UnstructuredGrid>
</VTKFile>
