<?xml version="1.0"?>
<VTKFile type="UnstructuredGrid" version="0.1" byte_order="LittleEndian" header_type="UInt32" compressor="vtkZLibDataCompressor">
  <UnstructuredGrid>
    <Piece NumberOfPoints="4" NumberOfCells="0">
      <PointData>
        <DataArray type="Float32" Name="mass" format="ascii" RangeMin="9.9999998245167e-15" RangeMax="1">
          1 0.000003000000106112566 0.0009549999958835542 9.9999998245167e-15
        </DataArray>
        <DataArray type="Float32" Name="velocity" NumberOfComponents="3" format="ascii" RangeMin="0.000817465097095242" RangeMax="0.99997870768875">
          -0.0007969606667757034 0.00018194197036791593 0 -0.9956430196762085 -0.09301824122667313 0
          0.4095001220703125 -0.19022294878959656 0 -0.007267557550221682 0.029482033103704453 0
          <InformationKey name="L2_NORM_RANGE" location="vtkDataArray" length="2">
            <Value index="0">
              0.0008174650971
            </Value>
            <Value index="1">
              0.99997870769
            </Value>
          </InformationKey>
        </DataArray>
        <DataArray type="Float32" Name="force" NumberOfComponents="3" format="ascii" RangeMin="8.148362598070013e-18" RangeMax="0.00003764616670420278">
          -0.000016633943232591264 -0.00003093803024967201 0 3.0009263696229027e-7 -0.000002980097178806318 0
          0.00001633385181776248 0.00003391812424524687 0 -8.148199699415865e-18 -5.1523665101598804e-20 0
          <InformationKey name="L2_NORM_RANGE" location="vtkDataArray" length="2">
            <Value index="0">
              8.1483625981e-18
            </Value>
            <Value index="1">
              3.7646166704e-05
            </Value>
          </InformationKey>
        </DataArray>
        <DataArray type="Int32" Name="type" format="ascii" RangeMin="0" RangeMax="0">
          0 0 0 0
        </DataArray>
      </PointData>
      <CellData>
      </CellData>
      <Points>
        <DataArray type="Float32" Name="Points" NumberOfComponents="3" format="ascii" RangeMin="0.1932700710919038" RangeMax="34.85354119917847">
          -0.19303922355175018 0.009443439543247223 0 -0.2933255732059479 1.0052247047424316 0
          -2.3783326148986816 -4.5284342765808105 0 34.85279846191406 0.22753790020942688 0
          <InformationKey name="L2_NORM_RANGE" location="vtkDataArray" length="2">
            <Value index="0">
              0.19327007109
            </Value>
            <Value index="1">
              34.853541199
            </Value>
          </InformationKey>
        </DataArray>
      </Points>
      <Cells>
        <DataArray type="Int64" Name="connectivity" format="ascii" RangeMin="1e+299" RangeMax="-1e+299">
        </DataArray>
        <DataArray type="Int64" Name="offsets" format="ascii" RangeMin="1e+299" RangeMax="-1e+299">
        </DataArray>
        <DataArray type="UInt8" Name="types" format="ascii" RangeMin="1e+299" RangeMax="-1e+299">
        </DataArray>
      </Cells>
    </Piece>
  </UnstructuredGrid>
</VTKFile>
