<?xml version="1.0"?>
<VTKFile type="UnstructuredGrid" version="0.1" byte_order="LittleEndian" header_type="UInt32" compressor="vtkZLibDataCompressor">
  <UnstructuredGrid>
    <Piece NumberOfPoints="4" NumberOfCells="0">
      <PointData>
        <DataArray type="Float32" Name="mass" format="ascii" RangeMin="9.9999998245167e-15" RangeMax="1">
          1 0.000003000000106112566 0.0009549999958835542 9.9999998245167e-15
        </DataArray>
        <DataArray type="Float32" Name="velocity" NumberOfComponents="3" format="ascii" RangeMin="0.00043901335678449293" RangeMax="1.005074302136126">
          -0.0002342683874303475 0.0003712829784490168 0 0.7048088312149048 0.7165325284004211 0
          -0.1850482076406479 -0.39102888107299805 0 0.7142662405967712 -0.28683435916900635 0
          <InformationKey name="L2_NORM_RANGE" location="vtkDataArray" length="2">
            <Value index="0">
              0.00043901335678
            </Value>
            <Value index="1">
              1.0050743021
            </Value>
          </InformationKey>
        </DataArray>
        <DataArray type="Float32" Name="force" NumberOfComponents="3" format="ascii" RangeMin="1.0536002544480945e-15" RangeMax="0.00003444990911305697">
          -0.000028556769393617287 0.000013483236216416117 0 -0.000002148763769582729 0.0000021361959170462796 0
          0.000030705530662089586 -0.00001561943099659402 0 -7.091726705558282e-16 7.791967784262228e-16 0
          <InformationKey name="L2_NORM_RANGE" location="vtkDataArray" length="2">
            <Value index="0">
              1.0536002544e-15
            </Value>
            <Value index="1">
              3.4449909113e-05
            </Value>
          </InformationKey>
        </DataArray>
        <DataArray type="Int32" Name="type" format="ascii" RangeMin="0" RangeMax="0">
          0 0 0 0
        </DataArray>
      </PointData>
      <CellData>
      </CellData>
      <Points>
        <DataArray type="Float32" Name="Points" NumberOfComponents="3" format="ascii" RangeMin="0.09215859753477901" RangeMax="5.348652894363185">
          -0.09211478382349014 0.0028414258267730474 0 0.6135545969009399 -0.6987094879150391 0
          -4.784964561462402 2.390021324157715 0 1.9816216230392456 -2.2757954597473145 0
          <InformationKey name="L2_NORM_RANGE" location="vtkDataArray" length="2">
            <Value index="0">
              0.092158597535
            </Value>
            <Value index="1">
              5.3486528944
            </Value>
          </InformationKey>
        </DataArray>
      </Points>
      <Cells>
        <DataArray type="Int64" Name="connectivity" format="ascii" RangeMin="1e+299" RangeMax="-1e+299">
        </DataArray>
        <DataArray type="Int64" Name="offsets" format="ascii" RangeMin="1e+299" RangeMax="-1e+299">
        </DataArray>
        <DataArray type="UInt8" Name="types" format="ascii" RangeMin="1e+299" RangeMax="-1e+299">
        </DataArray>
      </Cells>
    </Piece>
  </UnstructuredGrid>
</VTKFile>
