<?xml version="1.0"?>
<VTKFile type="UnstructuredGrid" version="0.1" byte_order="LittleEndian" header_type="UInt32" compressor="vtkZLibDataCompressor">
  <UnstructuredGrid>
    <Piece NumberOfPoints="4" NumberOfCells="0">
      <PointData>
        <DataArray type="Float32" Name="mass" format="ascii" RangeMin="9.9999998245167e-15" RangeMax="1">
          1 0.000003000000106112566 0.0009549999958835542 9.9999998245167e-15
        </DataArray>
        <DataArray type="Float32" Name="velocity" NumberOfComponents="3" format="ascii" RangeMin="0.0008370367161629247" RangeMax="1.1489260252277202">
          -0.0008354532765224576 0.00005146150942891836 0 -0.9675570726394653 -0.24809980392456055 0
          0.44971826672554016 -0.05310702323913574 0 -0.9320790767669678 -0.6717585921287537 0
          <InformationKey name="L2_NORM_RANGE" location="vtkDataArray" length="2">
            <Value index="0">
              0.00083703671616
            </Value>
            <Value index="1">
              1.1489260252
            </Value>
          </InformationKey>
        </DataArray>
        <DataArray type="Float32" Name="force" NumberOfComponents="3" format="ascii" RangeMin="4.72661782491523e-15" RangeMax="0.000037878953314542445">
          -0.000005365894594433485 -0.000034708726161625236 0 7.624209956702543e-7 -0.000002889452389354119 0
          0.000004603473826136906 0.00003759817991522141 0 -1.3084560510952118e-15 -4.541900353944228e-15 0
          <InformationKey name="L2_NORM_RANGE" location="vtkDataArray" length="2">
            <Value index="0">
              4.7266178249e-15
            </Value>
            <Value index="1">
              3.7878953315e-05
            </Value>
          </InformationKey>
        </DataArray>
        <DataArray type="Int32" Name="type" format="ascii" RangeMin="0" RangeMax="0">
          0 0 0 0
        </DataArray>
      </PointData>
      <CellData>
      </CellData>
      <Points>
        <DataArray type="Float32" Name="Points" NumberOfComponents="3" format="ascii" RangeMin="0.2871836636125911" RangeMax="5.054338110932591">
          -0.28701403737068176 0.00986909307539463 0 -0.5426536798477173 0.9786690473556519 0
          -0.897240936756134 -4.974061965942383 0 0.11565139144659042 1.4076017141342163 0
          <InformationKey name="L2_NORM_RANGE" location="vtkDataArray" length="2">
            <Value index="0">
              0.28718366361
            </Value>
            <Value index="1">
              5.0543381109
            </Value>
          </InformationKey>
        </DataArray>
      </Points>
      <Cells>
        <DataArray type="Int64" Name="connectivity" format="ascii" RangeMin="1e+299" RangeMax="-1e+299">
        </DataArray>
        <DataArray type="Int64" Name="offsets" format="ascii" RangeMin="1e+299" RangeMax="-1e+299">
        </DataArray>
        <DataArray type="UInt8" Name="types" format="ascii" RangeMin="1e+299" RangeMax="-1e+299">
        </DataArray>
      </Cells>
    </Piece>
  </UnstructuredGrid>
</VTKFile>
