<?xml version="1.0"?>
<VTKFile type="UnstructuredGrid" version="0.1" byte_order="LittleEndian" header_type="UInt32" compressor="vtkZLibDataCompressor">
  <UnstructuredGrid>
    <Piece NumberOfPoints="4" NumberOfCells="0">
      <PointData>
        <DataArray type="Float32" Name="mass" format="ascii" RangeMin="9.9999998245167e-15" RangeMax="1">
          1 0.000003000000106112566 0.0009549999958835542 9.9999998245167e-15
        </DataArray>
        <DataArray type="Float32" Name="velocity" NumberOfComponents="3" format="ascii" RangeMin="0.00026619350195140044" RangeMax="1.0063955050056892">
          -0.00008574339881306514 -0.0002520060515962541 0 0.2908517122268677 0.9634506702423096 0
          -0.3392713665962219 0.2608541250228882 0 0.11912686377763748 0.022173061966896057 0
          <InformationKey name="L2_NORM_RANGE" location="vtkDataArray" length="2">
            <Value index="0">
              0.00026619350195
            </Value>
            <Value index="1">
              1.006395505
            </Value>
          </InformationKey>
        </DataArray>
        <DataArray type="Float32" Name="force" NumberOfComponents="3" format="ascii" RangeMin="1.3507799268300577e-17" RangeMax="0.00003483900431304759">
          0.000022918551621842198 0.000026239211365464143 0 -0.0000029087727853038814 8.840204372972948e-7 0
          -0.000020009778381790966 -0.000027123231120640412 0 -1.3393586055727966e-17 1.752853000257285e-18 0
          <InformationKey name="L2_NORM_RANGE" location="vtkDataArray" length="2">
            <Value index="0">
              1.3507799268e-17
            </Value>
            <Value index="1">
              3.4839004313e-05
            </Value>
          </InformationKey>
        </DataArray>
        <DataArray type="Int32" Name="type" format="ascii" RangeMin="0" RangeMax="0">
          0 0 0 0
        </DataArray>
      </PointData>
      <CellData>
      </CellData>
      <Points>
        <DataArray type="Float32" Name="Points" NumberOfComponents="3" format="ascii" RangeMin="0.3333928135266433" RangeMax="26.893092117371662">
          -0.3333912193775177 0.0010309962090104818 0 0.6170682311058044 -0.2877906560897827 0
          2.826657772064209 4.284468173980713 0 26.660932540893555 -3.526057243347168 0
          <InformationKey name="L2_NORM_RANGE" location="vtkDataArray" length="2">
            <Value index="0">
              0.33339281353
            </Value>
            <Value index="1">
              26.893092117
            </Value>
          </InformationKey>
        </DataArray>
      </Points>
      <Cells>
        <DataArray type="Int64" Name="connectivity" format="ascii" RangeMin="1e+299" RangeMax="-1e+299">
        </DataArray>
        <DataArray type="Int64" Name="offsets" format="ascii" RangeMin="1e+299" RangeMax="-1e+299">
        </DataArray>
        <DataArray type="UInt8" Name="types" format="ascii" RangeMin="1e+299" RangeMax="-1e+299">
        </DataArray>
      </Cells>
    </Piece>
  </UnstructuredGrid>
</VTKFile>
