<?xml version="1.0"?>
<VTKFile type="UnstructuredGrid" version="0.1" byte_order="LittleEndian" header_type="UInt32" compressor="vtkZLibDataCompressor">
  <UnstructuredGrid>
    <Piece NumberOfPoints="4" NumberOfCells="0">
      <PointData>
        <DataArray type="Float32" Name="mass" format="ascii" RangeMin="9.9999998245167e-15" RangeMax="1">
          1 0.000003000000106112566 0.0009549999958835542 9.9999998245167e-15
        </DataArray>
        <DataArray type="Float32" Name="velocity" NumberOfComponents="3" format="ascii" RangeMin="0.0008205161116111927" RangeMax="1.0017002035509337">
          -0.0008032121695578098 0.00016762129962444305 0 -0.9878559708595276 0.16596348583698273 0
          0.4160216748714447 -0.17604103684425354 0 0.0019828174263238907 0.030408166348934174 0
          <InformationKey name="L2_NORM_RANGE" location="vtkDataArray" length="2">
            <Value index="0">
              0.00082051611161
            </Value>
            <Value index="1">
              1.0017002036
            </Value>
          </InformationKey>
        </DataArray>
        <DataArray type="Float32" Name="force" NumberOfComponents="3" format="ascii" RangeMin="8.899326388237726e-18" RangeMax="0.00003768313488575082">
          -0.000014655145605502184 -0.000031544172088615596 0 -4.773380055667076e-7 -0.0000029670802632608684 0
          0.000015132483895285986 0.00003451125303399749 0 -8.89885369759855e-18 9.172258784484164e-20 0
          <InformationKey name="L2_NORM_RANGE" location="vtkDataArray" length="2">
            <Value index="0">
              8.8993263882e-18
            </Value>
            <Value index="1">
              3.7683134886e-05
            </Value>
          </InformationKey>
        </DataArray>
        <DataArray type="Int32" Name="type" format="ascii" RangeMin="0" RangeMax="0">
          0 0 0 0
        </DataArray>
      </PointData>
      <CellData>
      </CellData>
      <Points>
        <DataArray type="Float32" Name="Points" NumberOfComponents="3" format="ascii" RangeMin="0.37545958789134204" RangeMax="33.15989410373735">
          -0.3753390610218048 0.009512697346508503 0 -0.21664512157440186 0.9959716200828552 0
          -2.396923542022705 -4.600926876068115 0 33.15815353393555 -0.339751660823822 0
          <InformationKey name="L2_NORM_RANGE" location="vtkDataArray" length="2">
            <Value index="0">
              0.37545958789
            </Value>
            <Value index="1">
              33.159894104
            </Value>
          </InformationKey>
        </DataArray>
      </Points>
      <Cells>
        <DataArray type="Int64" Name="connectivity" format="ascii" RangeMin="1e+299" RangeMax="-1e+299">
        </DataArray>
        <DataArray type="Int64" Name="offsets" format="ascii" RangeMin="1e+299" RangeMax="-1e+299">
        </DataArray>
        <DataArray type="UInt8" Name="types" format="ascii" RangeMin="1e+299" RangeMax="-1e+299">
        </DataArray>
      </Cells>
    </Piece>
  </UnstructuredGrid>
</VTKFile>
