<?xml version="1.0"?>
<VTKFile type="UnstructuredGrid" version="0.1" byte_order="LittleEndian" header_type="UInt32" compressor="vtkZLibDataCompressor">
  <UnstructuredGrid>
    <Piece NumberOfPoints="4" NumberOfCells="0">
      <PointData>
        <DataArray type="Float32" Name="mass" format="ascii" RangeMin="9.9999998245167e-15" RangeMax="1">
          1 0.000003000000106112566 0.0009549999958835542 9.9999998245167e-15
        </DataArray>
        <DataArray type="Float32" Name="velocity" NumberOfComponents="3" format="ascii" RangeMin="0.000820553322898807" RangeMax="1.0008728005952496">
          -0.0008031383622437716 0.00016815625713206828 0 -1.0007725954055786 0.014162459410727024 0
          0.4159850478172302 -0.17612433433532715 0 -0.09737555682659149 0.02472967840731144 0
          <InformationKey name="L2_NORM_RANGE" location="vtkDataArray" length="2">
            <Value index="0">
              0.0008205533229
            </Value>
            <Value index="1">
              1.0008728006
            </Value>
          </InformationKey>
        </DataArray>
        <DataArray type="Float32" Name="force" NumberOfComponents="3" format="ascii" RangeMin="1.1127103503498633e-17" RangeMax="0.00003768290747651165">
          -0.000015118595001695212 -0.00003150761767756194 0 -2.0970661651631417e-8 -0.0000030002790936123347 0
          0.00001513956522103399 0.00003450789881753735 0 -1.1071452675455815e-17 -1.1114711119565041e-18 0
          <InformationKey name="L2_NORM_RANGE" location="vtkDataArray" length="2">
            <Value index="0">
              1.1127103503e-17
            </Value>
            <Value index="1">
              3.7682907477e-05
            </Value>
          </InformationKey>
        </DataArray>
        <DataArray type="Int32" Name="type" format="ascii" RangeMin="0" RangeMax="0">
          0 0 0 0
        </DataArray>
      </PointData>
      <CellData>
      </CellData>
      <Points>
        <DataArray type="Float32" Name="Points" NumberOfComponents="3" format="ascii" RangeMin="0.04277562057264985" RangeMax="29.94982157574726">
          -0.041704561561346054 0.00951226893812418 0 -0.03472443297505379 1.00944185256958 0
          -2.064253807067871 -4.600520610809326 0 29.798988342285156 3.002017021179199 0
          <InformationKey name="L2_NORM_RANGE" location="vtkDataArray" length="2">
            <Value index="0">
              0.042775620573
            </Value>
            <Value index="1">
              29.949821576
            </Value>
          </InformationKey>
        </DataArray>
      </Points>
      <Cells>
        <DataArray type="Int64" Name="connectivity" format="ascii" RangeMin="1e+299" RangeMax="-1e+299">
        </DataArray>
        <DataArray type="Int64" Name="offsets" format="ascii" RangeMin="1e+299" RangeMax="-1e+299">
        </DataArray>
        <DataArray type="UInt8" Name="types" format="ascii" RangeMin="1e+299" RangeMax="-1e+299">
        </DataArray>
      </Cells>
    </Piece>
  </UnstructuredGrid>
</VTKFile>
