<?xml version="1.0"?>
<VTKFile type="UnstructuredGrid" version="0.1" byte_order="LittleEndian" header_type="UInt32" compressor="vtkZLibDataCompressor">
  <UnstructuredGrid>
    <Piece NumberOfPoints="4" NumberOfCells="0">
      <PointData>
        <DataArray type="Float32" Name="mass" format="ascii" RangeMin="9.9999998245167e-15" RangeMax="1">
          1 0.000003000000106112566 0.0009549999958835542 9.9999998245167e-15
        </DataArray>
        <DataArray type="Float32" Name="velocity" NumberOfComponents="3" format="ascii" RangeMin="0.0007401867251061389" RangeMax="1.0051540030177677">
          -0.0006548446835950017 0.0003450432268436998 0 -0.7614573240280151 0.6561381816864014 0
          0.2599518597126007 -0.36336296796798706 0 -0.06577563285827637 0.027338717132806778 0
          <InformationKey name="L2_NORM_RANGE" location="vtkDataArray" length="2">
            <Value index="0">
              0.00074018672511
            </Value>
            <Value index="1">
              1.005154003
            </Value>
          </InformationKey>
        </DataArray>
        <DataArray type="Float32" Name="force" NumberOfComponents="3" format="ascii" RangeMin="9.361783058091918e-18" RangeMax="0.00003681765867798168">
          -0.000028531825591926463 -0.000018325976270716637 0 -0.000001963761178558343 -0.0000023031091131997528 0
          0.00003049558654311113 0.000020629086066037416 0 -9.34086758408361e-18 -6.254396880538346e-19 0
          <InformationKey name="L2_NORM_RANGE" location="vtkDataArray" length="2">
            <Value index="0">
              9.3617830581e-18
            </Value>
            <Value index="1">
              3.6817658678e-05
            </Value>
          </InformationKey>
        </DataArray>
        <DataArray type="Int32" Name="type" format="ascii" RangeMin="0" RangeMax="0">
          0 0 0 0
        </DataArray>
      </PointData>
      <CellData>
      </CellData>
      <Points>
        <DataArray type="Float32" Name="Points" NumberOfComponents="3" format="ascii" RangeMin="0.21914941824344822" RangeMax="32.47700676810202">
          -0.21900923550128937 0.007837236858904362 0 0.42695191502571106 0.765432596206665 0
          -4.437479019165039 -2.8457937240600586 0 32.403053283691406 2.190458059310913 0
          <InformationKey name="L2_NORM_RANGE" location="vtkDataArray" length="2">
            <Value index="0">
              0.21914941824
            </Value>
            <Value index="1">
              32.477006768
            </Value>
          </InformationKey>
        </DataArray>
      </Points>
      <Cells>
        <DataArray type="Int64" Name="connectivity" format="ascii" RangeMin="1e+299" RangeMax="-1e+299">
        </DataArray>
        <DataArray type="Int64" Name="offsets" format="ascii" RangeMin="1e+299" RangeMax="-1e+299">
        </DataArray>
        <DataArray type="UInt8" Name="types" format="ascii" RangeMin="1e+299" RangeMax="-1e+299">
        </DataArray>
      </Cells>
    </Piece>
  </UnstructuredGrid>
</VTKFile>
