<?xml version="1.0"?>
<VTKFile type="UnstructuredGrid" version="0.1" byte_order="LittleEndian" header_type="UInt32" compressor="vtkZLibDataCompressor">
  <UnstructuredGrid>
    <Piece NumberOfPoints="4" NumberOfCells="0">
      <PointData>
        <DataArray type="Float32" Name="mass" format="ascii" RangeMin="9.9999998245167e-15" RangeMax="1">
          1 0.000003000000106112566 0.0009549999958835542 9.9999998245167e-15
        </DataArray>
        <DataArray type="Float32" Name="velocity" NumberOfComponents="3" format="ascii" RangeMin="0.0007390072882295637" RangeMax="0.9946219827646341">
          -0.0006489703664556146 0.00035350988036952913 0 -0.6230679154396057 -0.7752801179885864 0
          0.25336602330207825 -0.3677319586277008 0 -0.02168477326631546 0.02936118096113205 0
          <InformationKey name="L2_NORM_RANGE" location="vtkDataArray" length="2">
            <Value index="0">
              0.00073900728823
            </Value>
            <Value index="1">
              0.99462198276
            </Value>
          </InformationKey>
        </DataArray>
        <DataArray type="Float32" Name="force" NumberOfComponents="3" format="ascii" RangeMin="8.416003758678746e-18" RangeMax="0.00003782595455419995">
          -0.00003315401772852056 -0.000018210270354757085 0 0.000002322182808711659 -0.0000018468298321749899 0
          0.000030831834010314196 0.00002005709939112421 0 -8.413944706088326e-18 -1.8615517447277185e-19 0
          <InformationKey name="L2_NORM_RANGE" location="vtkDataArray" length="2">
            <Value index="0">
              8.4160037587e-18
            </Value>
            <Value index="1">
              3.7825954554e-05
            </Value>
          </InformationKey>
        </DataArray>
        <DataArray type="Int32" Name="type" format="ascii" RangeMin="0" RangeMax="0">
          0 0 0 0
        </DataArray>
      </PointData>
      <CellData>
      </CellData>
      <Points>
        <DataArray type="Float32" Name="Points" NumberOfComponents="3" format="ascii" RangeMin="0.010165486793077876" RangeMax="34.4770160361398">
          -0.006559413857758045 0.007766029331833124 0 -0.7935785055160522 0.6336296796798706 0
          -4.2778120040893555 -2.7708170413970947 0 34.46844482421875 0.7687302231788635 0
          <InformationKey name="L2_NORM_RANGE" location="vtkDataArray" length="2">
            <Value index="0">
              0.010165486793
            </Value>
            <Value index="1">
              34.477016036
            </Value>
          </InformationKey>
        </DataArray>
      </Points>
      <Cells>
        <DataArray type="Int64" Name="connectivity" format="ascii" RangeMin="1e+299" RangeMax="-1e+299">
        </DataArray>
        <DataArray type="Int64" Name="offsets" format="ascii" RangeMin="1e+299" RangeMax="-1e+299">
        </DataArray>
        <DataArray type="UInt8" Name="types" format="ascii" RangeMin="1e+299" RangeMax="-1e+299">
        </DataArray>
      </Cells>
    </Piece>
  </UnstructuredGrid>
</VTKFile>
