<?xml version="1.0"?>
<VTKFile type="UnstructuredGrid" version="0.1" byte_order="LittleEndian" header_type="UInt32" compressor="vtkZLibDataCompressor">
  <UnstructuredGrid>
    <Piece NumberOfPoints="4" NumberOfCells="0">
      <PointData>
        <DataArray type="Float32" Name="mass" format="ascii" RangeMin="9.9999998245167e-15" RangeMax="1">
          1 0.000003000000106112566 0.0009549999958835542 9.9999998245167e-15
        </DataArray>
        <DataArray type="Float32" Name="velocity" NumberOfComponents="3" format="ascii" RangeMin="0.0008371461634044147" RangeMax="1.0016873370123947">
          -0.0008358791819773614 0.000046040113375056535 0 -0.992456316947937 0.13567601144313812 0
          0.45024245977401733 -0.04863575100898743 0 0.13037735223770142 0.020520903170108795 0
          <InformationKey name="L2_NORM_RANGE" location="vtkDataArray" length="2">
            <Value index="0">
              0.0008371461634
            </Value>
            <Value index="1">
              1.001687337
            </Value>
          </InformationKey>
        </DataArray>
        <DataArray type="Float32" Name="force" NumberOfComponents="3" format="ascii" RangeMin="1.3575770530283887e-17" RangeMax="0.00003788224046130788">
          -0.000003831439698842587 -0.000034666583815123886 0 -3.8659192114209873e-7 -0.000002980094222948537 0
          0.000004218031790514942 0.00003764667781069875 0 -1.3449716050553977e-17 1.8457203608334602e-18 0
          <InformationKey name="L2_NORM_RANGE" location="vtkDataArray" length="2">
            <Value index="0">
              1.357577053e-17
            </Value>
            <Value index="1">
              3.7882240461e-05
            </Value>
          </InformationKey>
        </DataArray>
        <DataArray type="Int32" Name="type" format="ascii" RangeMin="0" RangeMax="0">
          0 0 0 0
        </DataArray>
      </PointData>
      <CellData>
      </CellData>
      <Points>
        <DataArray type="Float32" Name="Points" NumberOfComponents="3" format="ascii" RangeMin="0.13581881215014865" RangeMax="27.017422975002344">
          -0.13545937836170197 0.009874540381133556 0 -0.006918983068317175 1.000741958618164 0
          -0.6945194602012634 -4.979835510253906 0 26.764755249023438 -3.686328887939453 0
          <InformationKey name="L2_NORM_RANGE" location="vtkDataArray" length="2">
            <Value index="0">
              0.13581881215
            </Value>
            <Value index="1">
              27.017422975
            </Value>
          </InformationKey>
        </DataArray>
      </Points>
      <Cells>
        <DataArray type="Int64" Name="connectivity" format="ascii" RangeMin="1e+299" RangeMax="-1e+299">
        </DataArray>
        <DataArray type="Int64" Name="offsets" format="ascii" RangeMin="1e+299" RangeMax="-1e+299">
        </DataArray>
        <DataArray type="UInt8" Name="types" format="ascii" RangeMin="1e+299" RangeMax="-1e+299">
        </DataArray>
      </Cells>
    </Piece>
  </UnstructuredGrid>
</VTKFile>
