<?xml version="1.0"?>
<VTKFile type="UnstructuredGrid" version="0.1" byte_order="LittleEndian" header_type="UInt32" compressor="vtkZLibDataCompressor">
  <UnstructuredGrid>
    <Piece NumberOfPoints="4" NumberOfCells="0">
      <PointData>
        <DataArray type="Float32" Name="mass" format="ascii" RangeMin="9.9999998245167e-15" RangeMax="1">
          1 0.000003000000106112566 0.0009549999958835542 9.9999998245167e-15
        </DataArray>
        <DataArray type="Float32" Name="velocity" NumberOfComponents="3" format="ascii" RangeMin="0.0006347638336764655" RangeMax="1.0004618973717632">
          -0.00048022496048361063 -0.00041510132723487914 0 -0.999931812286377 0.0325634591281414 0
          0.07785314321517944 0.43455877900123596 0 -0.20337554812431335 0.008120638318359852 0
          <InformationKey name="L2_NORM_RANGE" location="vtkDataArray" length="2">
            <Value index="0">
              0.00063476383368
            </Value>
            <Value index="1">
              1.0004618974
            </Value>
          </InformationKey>
        </DataArray>
        <DataArray type="Float32" Name="force" NumberOfComponents="3" format="ascii" RangeMin="2.3729465904421525e-17" RangeMax="0.000035912237440150553">
          0.00003560812183422968 -0.0000022258684566622833 0 -7.798662693403458e-8 -0.0000029989130325702718 0
          -0.00003553013448254205 0.000005224781489232555 0 -2.320450398597851e-17 -4.9637230859316695e-18 0
          <InformationKey name="L2_NORM_RANGE" location="vtkDataArray" length="2">
            <Value index="0">
              2.3729465904e-17
            </Value>
            <Value index="1">
              3.591223744e-05
            </Value>
          </InformationKey>
        </DataArray>
        <DataArray type="Int32" Name="type" format="ascii" RangeMin="0" RangeMax="0">
          0 0 0 0
        </DataArray>
      </PointData>
      <CellData>
      </CellData>
      <Points>
        <DataArray type="Float32" Name="Points" NumberOfComponents="3" format="ascii" RangeMin="0.26930968293871593" RangeMax="20.282915532290772">
          -0.26924657821655273 0.005829703528434038 0 -0.24321837723255157 1.0055080652236938 0
          4.832695007324219 -0.7444189190864563 0 19.821931838989258 4.29973030090332 0
          <InformationKey name="L2_NORM_RANGE" location="vtkDataArray" length="2">
            <Value index="0">
              0.26930968294
            </Value>
            <Value index="1">
              20.282915532
            </Value>
          </InformationKey>
        </DataArray>
      </Points>
      <Cells>
        <DataArray type="Int64" Name="connectivity" format="ascii" RangeMin="1e+299" RangeMax="-1e+299">
        </DataArray>
        <DataArray type="Int64" Name="offsets" format="ascii" RangeMin="1e+299" RangeMax="-1e+299">
        </DataArray>
        <DataArray type="UInt8" Name="types" format="ascii" RangeMin="1e+299" RangeMax="-1e+299">
        </DataArray>
      </Cells>
    </Piece>
  </UnstructuredGrid>
</VTKFile>
