<?xml version="1.0"?>
<VTKFile type="UnstructuredGrid" version="0.1" byte_order="LittleEndian" header_type="UInt32" compressor="vtkZLibDataCompressor">
  <UnstructuredGrid>
    <Piece NumberOfPoints="4" NumberOfCells="0">
      <PointData>
        <DataArray type="Float32" Name="mass" format="ascii" RangeMin="9.9999998245167e-15" RangeMax="1">
          1 0.000003000000106112566 0.0009549999958835542 9.9999998245167e-15
        </DataArray>
        <DataArray type="Float32" Name="velocity" NumberOfComponents="3" format="ascii" RangeMin="0.00030933678791612564" RangeMax="0.995389424828277">
          -0.00011349828855600208 0.00028776272665709257 0 -0.7863011360168457 -0.6103528738021851 0
          -0.3068249225616455 -0.29940488934516907 0 -0.044389255344867706 0.029788490384817123 0
          <InformationKey name="L2_NORM_RANGE" location="vtkDataArray" length="2">
            <Value index="0">
              0.00030933678792
            </Value>
            <Value index="1">
              0.99538942483
            </Value>
          </InformationKey>
        </DataArray>
        <DataArray type="Float32" Name="force" NumberOfComponents="3" format="ascii" RangeMin="9.472438810201618e-18" RangeMax="0.000036787076686298755">
          -0.000024924227545852773 0.000027056827093474567 0 0.0000018359719433647115 -0.0000023379527647193754 0
          0.000023088256057235412 -0.000024718874556128867 0 -9.465942255785304e-18 -3.507623456873256e-19 0
          <InformationKey name="L2_NORM_RANGE" location="vtkDataArray" length="2">
            <Value index="0">
              9.4724388102e-18
            </Value>
            <Value index="1">
              3.6787076686e-05
            </Value>
          </InformationKey>
        </DataArray>
        <DataArray type="Int32" Name="type" format="ascii" RangeMin="0" RangeMax="0">
          0 0 0 0
        </DataArray>
      </PointData>
      <CellData>
      </CellData>
      <Points>
        <DataArray type="Float32" Name="Points" NumberOfComponents="3" format="ascii" RangeMin="0.39468105046545393" RangeMax="32.10956892285688">
          -0.39467853307724 0.001409654039889574 0 -1.0151140689849854 0.7914721965789795 0
          -4.021686553955078 3.884577512741089 0 32.08684539794922 1.2077950239181519 0
          <InformationKey name="L2_NORM_RANGE" location="vtkDataArray" length="2">
            <Value index="0">
              0.39468105047
            </Value>
            <Value index="1">
              32.109568923
            </Value>
          </InformationKey>
        </DataArray>
      </Points>
      <Cells>
        <DataArray type="Int64" Name="connectivity" format="ascii" RangeMin="1e+299" RangeMax="-1e+299">
        </DataArray>
        <DataArray type="Int64" Name="offsets" format="ascii" RangeMin="1e+299" RangeMax="-1e+299">
        </DataArray>
        <DataArray type="UInt8" Name="types" format="ascii" RangeMin="1e+299" RangeMax="-1e+299">
        </DataArray>
      </Cells>
    </Piece>
  </UnstructuredGrid>
</VTKFile>
