<?xml version="1.0"?>
<VTKFile type="UnstructuredGrid" version="0.1" byte_order="LittleEndian" header_type="UInt32" compressor="vtkZLibDataCompressor">
  <UnstructuredGrid>
    <Piece NumberOfPoints="4" NumberOfCells="0">
      <PointData>
        <DataArray type="Float32" Name="mass" format="ascii" RangeMin="9.9999998245167e-15" RangeMax="1">
          1 0.000003000000106112566 0.0009549999958835542 9.9999998245167e-15
        </DataArray>
        <DataArray type="Float32" Name="velocity" NumberOfComponents="3" format="ascii" RangeMin="0.00017306075113950734" RangeMax="1.005210664207122">
          -0.00004131693276576698 0.0001680563436821103 0 0.7005144357681274 0.7209216356277466 0
          -0.3870781362056732 -0.17823989689350128 0 0.026470815762877464 0.02985050156712532 0
          <InformationKey name="L2_NORM_RANGE" location="vtkDataArray" length="2">
            <Value index="0">
              0.00017306075114
            </Value>
            <Value index="1">
              1.0052106642
            </Value>
          </InformationKey>
        </DataArray>
        <DataArray type="Float32" Name="force" NumberOfComponents="3" format="ascii" RangeMin="9.104214621518437e-18" RangeMax="0.000033420572817197025">
          -0.000011424713193264324 0.000028410950108082034 0 -0.000002163442559321993 0.0000021225835098448442 0
          0.000013588155525212642 -0.000030533534300047904 0 -9.098565703151515e-18 3.206649655092774e-19 0
          <InformationKey name="L2_NORM_RANGE" location="vtkDataArray" length="2">
            <Value index="0">
              9.1042146215e-18
            </Value>
            <Value index="1">
              3.3420572817e-05
            </Value>
          </InformationKey>
        </DataArray>
        <DataArray type="Int32" Name="type" format="ascii" RangeMin="0" RangeMax="0">
          0 0 0 0
        </DataArray>
      </PointData>
      <CellData>
      </CellData>
      <Points>
        <DataArray type="Float32" Name="Points" NumberOfComponents="3" format="ascii" RangeMin="0.3640445389431896" RangeMax="32.79165489859894">
          -0.3640442490577698 0.0004594151978380978 0 0.3461461365222931 -0.6963078379631042 0
          -2.537454605102539 4.884265899658203 0 32.770999908447266 -1.1636992692947388 0
          <InformationKey name="L2_NORM_RANGE" location="vtkDataArray" length="2">
            <Value index="0">
              0.36404453894
            </Value>
            <Value index="1">
              32.791654899
            </Value>
          </InformationKey>
        </DataArray>
      </Points>
      <Cells>
        <DataArray type="Int64" Name="connectivity" format="ascii" RangeMin="1e+299" RangeMax="-1e+299">
        </DataArray>
        <DataArray type="Int64" Name="offsets" format="ascii" RangeMin="1e+299" RangeMax="-1e+299">
        </DataArray>
        <DataArray type="UInt8" Name="types" format="ascii" RangeMin="1e+299" RangeMax="-1e+299">
        </DataArray>
      </Cells>
    </Piece>
  </UnstructuredGrid>
</VTKFile>
