<?xml version="1.0"?>
<VTKFile type="UnstructuredGrid" version="0.1" byte_order="LittleEndian" header_type="UInt32" compressor="vtkZLibDataCompressor">
  <UnstructuredGrid>
    <Piece NumberOfPoints="4" NumberOfCells="0">
      <PointData>
        <DataArray type="Float32" Name="mass" format="ascii" RangeMin="9.9999998245167e-15" RangeMax="1">
          1 0.000003000000106112566 0.0009549999958835542 9.9999998245167e-15
        </DataArray>
        <DataArray type="Float32" Name="velocity" NumberOfComponents="3" format="ascii" RangeMin="0.0007763871188012272" RangeMax="0.9980291001014273">
          -0.0007145790732465684 0.00030356828938238323 0 0.9855280518531799 -0.15746918320655823 0
          0.31701311469078064 -0.31737789511680603 0 -0.023453937843441963 0.029320433735847473 0
          <InformationKey name="L2_NORM_RANGE" location="vtkDataArray" length="2">
            <Value index="0">
              0.0007763871188
            </Value>
            <Value index="1">
              0.9980291001
            </Value>
          </InformationKey>
        </DataArray>
        <DataArray type="Float32" Name="force" NumberOfComponents="3" format="ascii" RangeMin="8.43795201022691e-18" RangeMax="0.00003956570864192289">
          -0.000027358402803656645 -0.000028582566301338375 0 4.929657393404341e-7 0.0000029515940696001053 0
          0.00002686543666641228 0.00002563097223173827 0 -8.435534947256573e-18 -2.019511834711464e-19 0
          <InformationKey name="L2_NORM_RANGE" location="vtkDataArray" length="2">
            <Value index="0">
              8.4379520102e-18
            </Value>
            <Value index="1">
              3.9565708642e-05
            </Value>
          </InformationKey>
        </DataArray>
        <DataArray type="Int32" Name="type" format="ascii" RangeMin="0" RangeMax="0">
          0 0 0 0
        </DataArray>
      </PointData>
      <CellData>
      </CellData>
      <Points>
        <DataArray type="Float32" Name="Points" NumberOfComponents="3" format="ascii" RangeMin="0.011638868306086807" RangeMax="34.43106488396274">
          -0.007993319071829319 0.008459911681711674 0 -0.1729680746793747 -0.9790928363800049 0
          -3.67738676071167 -3.4923293590545654 0 34.421051025390625 0.8303465247154236 0
          <InformationKey name="L2_NORM_RANGE" location="vtkDataArray" length="2">
            <Value index="0">
              0.011638868306
            </Value>
            <Value index="1">
              34.431064884
            </Value>
          </InformationKey>
        </DataArray>
      </Points>
      <Cells>
        <DataArray type="Int64" Name="connectivity" format="ascii" RangeMin="1e+299" RangeMax="-1e+299">
        </DataArray>
        <DataArray type="Int64" Name="offsets" format="ascii" RangeMin="1e+299" RangeMax="-1e+299">
        </DataArray>
        <DataArray type="UInt8" Name="types" format="ascii" RangeMin="1e+299" RangeMax="-1e+299">
        </DataArray>
      </Cells>
    </Piece>
  </UnstructuredGrid>
</VTKFile>
